BEGIN_CFG
 Size
    18
 SuperCell
         2.45951   0.0   0.0
         0.0   30.0   0.0
         0.0   0.0   19.2468
 AtomData:  id type	  cartes_x	cartes_y      cartes_z           fx          fy          fz
             1   0       2.4283300       15.0729000        0.0217820         -2.0729522       -4.1310976        2.0051237
             2   0       1.1398500       14.5736000        0.7787100          2.8390481        4.6416511       -4.1493049
             3   0       1.3424600       14.3153000        2.2260800        -10.8134737        2.3707857       -6.0440570
             4   0       2.4165200       14.5520000        2.8097200          9.0939621       -3.8069412        6.1011512
             5   0       2.4259200       14.4127000        5.5101900          1.8165834       -2.2993769       -3.3053737
             6   0       1.2426700       14.4743000        6.1709500         -1.3823369        2.0460273        0.8674280
             7   0       1.2931800       14.9033000        7.5967100          6.8378692       -2.7848009       -4.8285233
             8   0       0.1812590       14.8644000        8.2022500         -8.3801413        2.7029190        7.6247293
             9   0       0.0824650       15.2379000        9.7798400          0.1252479       -0.2973404       -5.3496853
             10   0       1.3010300       15.5152000       10.3642000         -0.4398209       -1.6491611        1.2472221
             11   0       1.1710900       15.7407000       11.7713000          8.5529405        1.9478441       -1.2099938
             12   0       0.0943100       16.0781000       12.3707000         -8.3055261       -1.1433919        5.1354299
             13   0       2.2468000       15.9832000       15.0759000         13.7400339        1.5763115       -6.0530152
             14   0       1.2531300       16.0274000       15.7579000        -13.5701280       -2.0386251        5.5525624
             15   0       1.1517400       15.6289000       17.1719000         -2.0538034        1.3690098       -2.4239877
             16   0       2.3226500       15.4774000       17.7863000          4.3436302       -1.4018356        5.2358402
             17   1       2.4033600       13.8300000        4.1601900         -0.0498048        2.7813932        1.9073587
             18   1       0.1073680       16.3846000       13.7873000         -0.2813286        0.1166294       -2.3129042
 Energy
         -3350.4512125549495
 PlusStress:  xx          yy          zz          yz          xz          xy
              0.0183521       -0.0044237       -0.0078163        0.0024882       -0.0048001       -0.0004885
END_CFG

BEGIN_CFG
 Size
    18
 SuperCell
         2.45951   0.0   0.0
         0.0   30.0   0.0
         0.0   0.0   14.4204
 AtomData:  id type	  cartes_x	cartes_y      cartes_z           fx          fy          fz
             1   0       0.0441230       14.9669000        0.2430770         -3.2090828        5.2029677       -5.2453266
             2   0       1.2045500       14.5222000        0.6732640          3.4433299       -0.6172185       -0.0123837
             3   0       1.1388300       13.4746000        1.5638100          3.0463430       -3.4567289        2.4103634
             4   0       2.4265200       12.9258000        2.0395800         -2.4217892        1.1765617        0.2084023
             5   0       2.4236300       13.1054000        3.9536500         -0.2314502        6.0018277        9.9963236
             6   0       1.1597400       13.6489000        4.8208800          0.6430059      -15.2983546      -18.1274191
             7   0       1.0786400       14.5758000        5.5671100          3.0964461        8.1352756        9.3717453
             8   0       2.3738300       14.9128000        6.1379400         -1.4489570        6.1615400        3.5856468
             9   0       0.0996440       16.0487000        7.2161400         -9.2676468       -5.0138034       -4.2657594
             10   0       1.1934200       16.4665000        7.7146400          8.5235944        1.2171412        1.2079909
             11   0       1.3090600       17.3805000        8.7546500         -3.8882634        2.8714959        2.1896335
             12   0       2.4494100       17.9272000        9.2952100          2.9343720       -5.1251278       -5.8329473
             13   0       0.0197660       18.0659000       11.3217000          3.7962132       -5.4459279        4.2149647
             14   0       1.3859100       17.4131000       11.7976000         -4.9607525        2.9436388       -0.2032393
             15   0       1.2398300       16.5017000       12.9024000          6.9806927        1.1419298       -0.9976906
             16   0       0.1291960       16.0914000       13.4399000         -6.5681095       -3.8043593        3.8842959
             17   1       2.4258800       12.0575000        3.2314300          0.0573364       -2.1050560       -3.5984209
             18   1       0.0221250       18.7788000       10.2314000         -0.5252831        6.0141975        1.2138209
 Energy
         -3350.3384288519574
 PlusStress:  xx          yy          zz          yz          xz          xy
              0.0131985        0.0125815        0.0121160        0.0123042       -0.0006005        0.0001552
END_CFG

BEGIN_CFG
 Size
    18
 SuperCell
         2.45951   0.0   0.0
         0.0   30.0   0.0
         0.0   0.0   14.4204
 AtomData:  id type	  cartes_x	cartes_y      cartes_z           fx          fy          fz
             1   0       0.0050560       15.0500000       14.3209000          2.6706054      -10.4273842        8.8182287
             2   0       1.2991200       14.4694000        0.3565580         -3.6617343       -0.3016495        3.1679488
             3   0       1.1649800       13.5937000        1.5782700         -1.0316248       -0.1042996       -2.5986932
             4   0       2.3447700       13.1069000        2.0512600          2.8065347       -0.0602006        0.5046356
             5   0       0.0425070       13.0783000        4.0044400         -0.3741762        4.4412873        9.6715735
             6   0       1.2648600       13.4731000        4.7898400          0.6321307       -4.9906436       -9.5361391
             7   0       1.3020900       14.5159000        5.5668700         -3.3848789        3.9470776        4.7314443
             8   0       0.0054430       15.0160000        6.0592900          4.6766076        1.8642244        3.5323162
             9   0       0.2223360       16.0169000        7.3794600        -25.3672558      -13.2556604      -11.6240911
             10   0       1.1184800       16.6298000        7.5891400         23.7812135       10.7862485        8.4940810
             11   0       1.1646300       17.4979000        8.7600700         -8.2970949       -1.0113187       -1.8797618
             12   0       2.2237000       17.8218000        9.3540700          8.5858511        3.3767630        0.7545730
             13   0       0.2087870       18.0239000       11.3027000         -4.2950515       -4.1496474        3.3378539
             14   0       1.3094100       17.3293000       11.8964000          1.4729477        7.5627148       -6.0135046
             15   0       1.0950100       16.4653000       12.8623000          7.2115163       -2.3724045        3.5616140
             16   0       0.0802090       15.9472000       13.5106000         -6.6018612        9.4210100      -10.1400300
             17   1       2.4398400       12.1513000        3.1687500         -0.1628447       -3.0609125       -5.2980604
             18   1       2.2754200       18.9136000       10.3039000          1.3391154       -1.6652050        0.5160111
 Energy
         -3346.3697421223255
 PlusStress:  xx          yy          zz          yz          xz          xy
              0.0235820        0.0195815        0.0093478        0.0032677        0.0050985        0.0156087
END_CFG

BEGIN_CFG
 Size
    18
 SuperCell
         2.45951   0.0   0.0
         0.0   30.0   0.0
         0.0   0.0   14.4204
 AtomData:  id type	  cartes_x	cartes_y      cartes_z           fx          fy          fz
             1   0       0.1624350       14.9388000       14.3676000        -29.7448986        8.2722776       -7.2899372
             2   0       1.1224600       14.5978000        0.2848620         30.8115778      -13.3272171       13.0099555
             3   0       1.4042400       13.4577000        1.5769500        -24.9501537        7.9845519       -9.5889979
             4   0       2.4345800       13.1913000        1.8540500         23.1860126       -8.0851954        8.7728225
             5   0       2.4272700       13.0067000        4.2335000         -4.3345130       -2.7180929       -4.9037468
             6   0       1.1197700       13.5166000        4.5473600          5.6775092        3.3827567        4.6580159
             7   0       1.2339800       14.5695000        5.5551100          1.7167654        1.2363175        2.8836164
             8   0       0.1144720       15.0902000        6.2304400         -2.8371745       -7.3305766       -9.3416997
             9   0       0.0900860       15.9091000        7.1979300         -6.4552916        4.9460165        5.6162090
             10   0       1.1361800       16.4394000        7.7782700          6.6631457       -2.4786358       -3.0409409
             11   0       1.1605900       17.4040000        8.6865500         -0.6352252        3.1470411        4.5996105
             12   0       2.3749900       17.8653000        9.2690200          0.8148042        0.1187055       -1.1468840
             13   0       2.3477800       17.9558000       11.4963000         13.3815730        4.8644061       -6.9969809
             14   0       1.3039600       17.4245000       11.7566000        -13.8692743       -2.7163548        5.2176993
             15   0       1.1550400       16.6354000       12.8805000          1.0293052       -7.1955626        7.1210644
             16   0       2.3958100       15.9966000       13.6004000          0.5195847        9.3534882      -10.4457648
             17   1       0.0120160       12.1293000        3.1201100         -0.2751947        0.8098864        0.3583002
             18   1       2.4242900       18.7956000       10.2654000         -0.6985525       -0.2638122        0.5176582
 Energy
         -3343.2469101034867
 PlusStress:  xx          yy          zz          yz          xz          xy
              0.0525609        0.0160981        0.0113475       -0.0022991        0.0128909       -0.0037617
END_CFG

BEGIN_CFG
 Size
    18
 SuperCell
         2.45951   0.0   0.0
         0.0   30.0   0.0
         0.0   0.0   19.2468
 AtomData:  id type	  cartes_x	cartes_y      cartes_z           fx          fy          fz
             1   0       2.4178400       14.9944000       19.0332000          4.6708005       -5.9923172       14.2697154
             2   0       1.3937800       14.6429000        0.6032100         -5.3800436        1.8661378       -2.1434644
             3   0       1.2800400       14.3422000        1.9563600         -0.4830931        0.0752202        8.4132347
             4   0       2.3686100       14.3441000        2.9787600          1.6133575       -0.2429477       -8.0859261
             5   0       0.0041540       14.1771000        5.5529800         -2.3068624        2.2529826        1.9372236
             6   0       1.1701400       14.4648000        6.3039600          2.0242331       -5.3277325      -15.4835465
             7   0       1.1549700       14.8231000        7.4734200          2.6536232        3.3968842       11.0032304
             8   0       2.4438700       15.0257000        8.1497400         -2.8320843        0.0729137        2.4907377
             9   0       2.4256300       15.3319000        9.5596200         -3.2701133       -1.6161157       -0.9612277
             10   0       1.1109900       15.3912000       10.2954000          3.9157019        1.8900519       -3.0626253
             11   0       1.2028500       16.1120000       11.4421000         -0.1963716       -0.6202033       12.4778650
             12   0       0.0112730       16.1037000       12.5089000         -0.1210133       -0.3967518      -10.0197680
             13   0       0.0501860       15.9822000       15.1225000         -0.2298471       -0.2730247        1.6707393
             14   0       1.2839900       15.8575000       15.8870000         -2.0103378        1.6904379       -3.5675758
             15   0       1.0429500       15.7064000       17.3314000         11.8361382        0.9267868       -8.1940058
             16   0       2.4259400       15.4167000       17.8768000         -9.7136555        2.4914373       -4.1243279
             17   1       2.3766000       13.9422000        4.2243500         -0.0215384       -0.4710310        0.0866649
             18   1       2.4214000       16.3846000       13.7402000         -0.1488931        0.2772711        3.2930561
 Energy
         -3347.975521667202
 PlusStress:  xx          yy          zz          yz          xz          xy
              0.0085306        0.0018317       -0.0001368        0.0014847       -0.0020998        0.0026057
END_CFG

BEGIN_CFG
 Size
    18
 SuperCell
         2.45951   0.0   0.0
         0.0   30.0   0.0
         0.0   0.0   17.7913
 AtomData:  id type	  cartes_x	cartes_y      cartes_z           fx          fy          fz
             1   0       0.0091210       15.1091000       17.5966000          0.2093963      -10.9815822       18.1417664
             2   0       1.0911200       14.4535000        0.8763870         -2.1512178        8.8558216      -22.0094697
             3   0       1.4025400       14.2701000        1.9856900          0.6282560       -6.8332772       15.2064757
             4   0       0.0976420       13.6145000        2.7332500          7.5266597       13.9363721      -24.6166207
             5   0       2.3471800       13.6664000        5.0453900          0.3111917        3.2445638        3.9692621
             6   0       1.1505900       14.1356000        5.6955500          0.0108953       -3.3905215       -2.0279658
             7   0       1.2231900       14.6623000        7.1241200         -3.8196021       -1.1885446       -5.1704895
             8   0       2.3988200       14.9826000        7.6672500          2.4030628       -0.2626202        1.4063047
             9   0       2.2949100       15.5852000        8.9491900         19.6401117       -4.4475650       -8.5518249
             10   0       1.3463700       15.9666000        9.4637700        -18.7879756        5.0848831       10.1492688
             11   0       1.3740100       16.5619000       10.8050000         -5.5528403       -0.2693405       -2.5377637
             12   0       0.0181930       16.8945000       11.3831000          4.6510104        0.2752124        2.1175971
             13   0       0.0474520       16.7843000       13.9288000         -3.9102183        0.6388790       -1.0376620
             14   0       1.1889000       16.4906000       14.6227000          3.5957053        1.9929181       -4.4739661
             15   0       1.2441200       15.9580000       15.8695000          1.0094400        1.1701481        2.3788903
             16   0       0.0550850       15.8038000       16.6211000         -1.2157531        4.2095973      -11.3537342
             17   1       2.1460200       13.2132000        3.6254400         -6.1481160      -10.6177323       24.9628105
             18   1       2.2816000       17.5472000       12.5730000          1.5999939       -1.4172124        3.4471212
 Energy
         -3341.5865418014378
 PlusStress:  xx          yy          zz          yz          xz          xy
              0.0194888        0.0037672        0.0302909       -0.0084829       -0.0080513       -0.0014902
END_CFG

BEGIN_CFG
 Size
    18
 SuperCell
         2.45951   0.0   0.0
         0.0   30.0   0.0
         0.0   0.0   19.2468
 AtomData:  id type	  cartes_x	cartes_y      cartes_z           fx          fy          fz
             1   0       0.1788630       15.0437000        0.0096500        -24.9074883        3.6454340      -13.0663090
             2   0       1.0434100       14.7945000        0.6519090         24.2986084       -4.8148020       15.0148614
             3   0       1.2214800       14.4040000        2.0577700         -2.2771374       -1.4221065        3.4134045
             4   0       2.4117900       14.1575000        2.8380000          0.8664664        2.0177089       -1.1173086
             5   0       0.0881320       14.4599000        5.5040800        -10.8696657       -2.3767026       -6.9830650
             6   0       1.1892900       14.4122000        6.0318200         11.3160454        2.2642667        7.7767077
             7   0       1.3279900       14.7121000        7.4427300         -3.2867700        4.0439609        5.4184660
             8   0       2.4389500       15.1486000        8.2722900          1.4318353       -5.3079445       -5.5769094
             9   0       2.3571300       15.2842000        9.6859100          5.6412834       -0.0739984       -4.0301767
             10   0       1.2137100       15.4564000       10.2878000         -4.5976076        1.6754648        1.0092703
             11   0       1.3042600       16.0865000       11.5611000         -9.5660662       -2.1158328       -0.6368975
             12   0       2.3968700       15.9862000       12.1310000          9.0832403        1.9464650        6.8850273
             13   0       2.3671300       15.9642000       15.2349000          4.4439132        1.0362908       -5.4647016
             14   0       1.2165600       15.7265000       15.8745000         -3.7377690        1.5194076       -5.4954381
             15   0       1.1941300       15.3590000       17.1250000         -0.8248654       -0.9309980        7.6154590
             16   0       2.4006500       15.2682000       17.8750000          2.9789578        0.0825977       -1.7938001
             17   1       2.2346900       13.9066000        4.2256300          0.8265806        0.1440728       -4.2907505
             18   1       0.0852800       16.5330000       13.8596000         -0.8195615       -1.3332846        1.3221600
 Energy
         -3346.7829276662414
 PlusStress:  xx          yy          zz          yz          xz          xy
              0.0231422       -0.0012928        0.0031015       -0.0019805        0.0106534       -0.0049975
END_CFG

BEGIN_CFG
 Size
    18
 SuperCell
         2.45951   0.0   0.0
         0.0   30.0   0.0
         0.0   0.0   19.2468
 AtomData:  id type	  cartes_x	cartes_y      cartes_z           fx          fy          fz
             1   0       0.0050560       15.0500000       19.1472000          2.9863970       -4.5531594       14.0577914
             2   0       1.2991200       14.7804000        0.5289270         -4.1162997        0.0783760        5.9654131
             3   0       1.1649800       14.5265000        2.0953800         -0.9322051       -0.5964165       -2.0728982
             4   0       2.3447700       14.3508000        2.7407400          2.7728191        0.6191731        1.5448034
             5   0       0.0425070       14.3221000        5.3834000         -0.4187908        1.4080904       10.6813763
             6   0       1.2648600       14.4060000        6.3411600          0.3028957       -4.5345431      -21.6081955
             7   0       1.3020900       14.8268000        7.4629300         -3.1540437        3.9813175       13.5003115
             8   0       0.0054430       15.0160000        8.1277200          4.5151793        0.7871741        4.4457202
             9   0       0.2223360       15.3950000        9.7926200        -42.4649877      -11.2749777      -23.5947314
             10   0       1.1184800       15.6969000       10.1747000         41.0685990       10.4101447       21.2868287
             11   0       1.1646300       15.9431000       11.6903000         -5.1251545       -0.0876569        0.8990214
             12   0       2.2237000       15.9561000       12.4567000          6.2920780        1.0692863       -0.8017461
             13   0       0.2087870       16.1581000       15.0948000         -5.0121872       -3.2086326        0.5016310
             14   0       1.3094100       15.7745000       15.8608000          1.8719277        3.6312142       -5.9722109
             15   0       1.0950100       15.5324000       17.1715000          7.1130178       -1.0142035        3.2973778
             16   0       0.0802090       15.3252000       17.9922000         -5.9348661        4.4809623      -17.2993159
             17   1       2.4398400       14.0170000        4.2029700         -0.1927813       -1.2337670       -6.9053827
             18   1       2.2754200       16.4259000       13.7513000          0.4284024        0.0376181        2.0742053
 Energy
         -3341.784805304851
 PlusStress:  xx          yy          zz          yz          xz          xy
              0.0268993        0.0039563        0.0130305        0.0071341        0.0103825        0.0082726
END_CFG

BEGIN_CFG
 Size
    18
 SuperCell
         2.45951   0.0   0.0
         0.0   30.0   0.0
         0.0   0.0   14.4204
 AtomData:  id type	  cartes_x	cartes_y      cartes_z           fx          fy          fz
             1   0       0.0091210       15.1091000       14.2257000          0.4548505      -10.1378315       10.8579257
             2   0       1.0911200       14.2816000        0.7559990         -7.1833982       23.0696170      -32.1160944
             3   0       1.4025400       13.7543000        1.6245300          6.4206465      -20.1975973       26.2653586
             4   0       0.0976420       12.9267000        2.2517000          6.8341179       23.0259849      -19.1726859
             5   0       2.3471800       12.9787000        4.0822900         -0.0507770        4.7082743        4.7899485
             6   0       1.1505900       13.6198000        4.6120600          0.1447547       -4.0944746       -1.3170178
             7   0       1.2231900       14.4904000        5.7998600         -3.6969815       -1.7758250       -4.0714804
             8   0       2.3988200       14.9826000        6.2226000          2.1870755       -0.0449352        1.5441156
             9   0       2.2949100       15.9291000        7.2637700         17.3671197       -5.2796652       -5.7186986
             10   0       1.3463700       16.4824000        7.6579500        -16.4330513        6.0433379        6.9605910
             11   0       1.3740100       17.4215000        8.7584000         -5.9844730       -0.6292376       -2.6489618
             12   0       0.0181930       17.9261000        9.2161300          4.7591582        0.9321002        1.3646729
             13   0       0.0474520       17.8159000       11.2803000         -4.6181872        1.6801280       -0.6031070
             14   0       1.1889000       17.3502000       11.8538000          4.0382986        3.5942158       -4.3612260
             15   0       1.2441200       16.4737000       12.8598000          1.3444795        0.6478866        2.4005377
             16   0       0.0550850       16.1477000       13.4910000         -1.8127709        1.3029119       -4.0406833
             17   1       2.1460200       12.1816000        2.9031200         -5.9944753      -20.2764924       17.1640401
             18   1       2.2816000       18.9226000       10.1652000          2.2236134       -2.5683976        2.7027650
 Energy
         -3339.4930300380893
 PlusStress:  xx          yy          zz          yz          xz          xy
              0.0251796        0.0231550        0.0349478       -0.0213922       -0.0030868       -0.0018556
END_CFG

BEGIN_CFG
 Size
    18
 SuperCell
         2.45951   0.0   0.0
         0.0   30.0   0.0
         0.0   0.0   19.2468
 AtomData:  id type	  cartes_x	cartes_y      cartes_z           fx          fy          fz
             1   0       0.1764050       15.0400000        0.0978740          2.3715812        1.3842894       -6.9270070
             2   0       1.4538500       15.0090000        0.5896570         -5.3987993       -3.8646074       10.2309358
             3   0       1.3247600       14.4516000        2.0518300          0.0951995        1.3283977        2.4545584
             4   0       0.0410600       14.3033000        2.8949700          1.3348466        2.2317127       -9.2785354
             5   0       0.0761040       14.3011000        5.5434700         -2.5101027        0.8443960       -3.8070188
             6   0       1.2631200       14.6161000        6.1659500          2.3478764       -5.2929660      -21.8463249
             7   0       1.2610600       14.7368000        7.3059300          0.2920470        6.8233491       27.5320162
             8   0       0.0653620       15.0864000        8.1744000          0.9251788       -3.3673409       -2.4075710
             9   0       0.2269750       15.2101000        9.6279600         -5.2453256        3.3385427       -0.0839774
             10   0       1.2110400       15.6866000       10.4577000          3.8099591       -7.1567232      -20.6273377
             11   0       1.2452500       15.9267000       11.5968000         -6.7201947        3.5321509       16.8741688
             12   0       2.2614300       16.0318000       12.3886000          7.7943406        0.3501812        1.1341262
             13   0       0.1230290       16.1869000       15.0837000         -8.1712752       -1.9564267       -4.1992380
             14   0       1.1995300       15.7840000       15.6678000          6.0553169        2.5550680        2.7769218
             15   0       1.0591300       15.7284000       17.1337000          3.0236716       -5.6348096        3.6699986
             16   0       2.4157000       15.2303000       17.9498000         -0.0142118        5.4305252       -6.3054991
             17   1       2.2981200       13.9121000        4.0347600          0.0911400       -1.1658600        8.2856342
             18   1       0.0386900       16.3711000       13.6296000         -0.0812484        0.6201208        2.5241489
 Energy
         -3344.201637561127
 PlusStress:  xx          yy          zz          yz          xz          xy
              0.0119572       -0.0032310        0.0179169        0.0028279        0.0026663        0.0001974
END_CFG

BEGIN_CFG
 Size
    18
 SuperCell
         2.45951   0.0   0.0
         0.0   30.0   0.0
         0.0   0.0   16.5776
 AtomData:  id type	  cartes_x	cartes_y      cartes_z           fx          fy          fz
             1   0       0.0441230       14.9669000        0.2430770         -3.3431671        4.5760502       -6.0552866
             2   0       1.2045500       14.6191000        0.7503070          3.6390672        0.1637546       -1.0633188
             3   0       1.1388300       13.7652000        1.7949400          2.9029320       -3.5929971        4.9558566
             4   0       2.4265200       13.3132000        2.3477500         -2.3586395        0.9418157        0.0248297
             5   0       2.4236300       13.4928000        4.5699900         -0.1294748        6.2914722       11.3516922
             6   0       1.1597400       13.9395000        5.5142600          0.8032566      -14.1569393      -23.0648767
             7   0       1.0786400       14.6726000        6.4145900          2.5066040        8.6167507       14.1004028
             8   0       2.3738300       14.9128000        7.0624600         -1.1259838        4.9592698        3.5694607
             9   0       0.0996440       15.8550000        8.2947400         -8.9455492       -4.0892789       -4.4230312
             10   0       1.1934200       16.1760000        8.8702900          8.2075542        1.1454514        1.3548274
             11   0       1.3090600       16.8962000       10.0644000         -3.7021983        2.2791508        2.2272947
             12   0       2.4494100       17.3460000       10.6820000          2.7008099       -3.5557781       -4.2616709
             13   0       0.0197660       17.4847000       13.0166000          3.8459862       -3.6884781        1.4778750
             14   0       1.3859100       16.9288000       13.5696000         -5.0522097        2.4512260       -0.1444297
             15   0       1.2398300       16.2112000       14.8284000          6.5051278        0.9595270       -0.8990322
             16   0       0.1291960       15.8977000       15.4430000         -6.1221599       -2.9807997        3.6642653
             17   1       2.4258800       12.6387000        3.6936900          0.0358934       -3.3112271       -5.3466900
             18   1       0.0221250       18.0039000       11.7722000         -0.3678488        2.9910301        2.5318316
 Energy
         -3350.0450353029482
 PlusStress:  xx          yy          zz          yz          xz          xy
              0.0104275        0.0077428        0.0106231        0.0120334       -0.0008061        0.0000542
END_CFG

BEGIN_CFG
 Size
    18
 SuperCell
         2.45951   0.0   0.0
         0.0   30.0   0.0
         0.0   0.0   14.4204
 AtomData:  id type	  cartes_x	cartes_y      cartes_z           fx          fy          fz
             1   0       0.1788630       15.0437000        0.0096500        -21.0096090        5.5998249       -5.5859422
             2   0       1.0434100       14.4835000        0.4795400         20.6015194       -9.4819420        9.4462850
             3   0       1.2214800       13.4711000        1.5406700         -2.2969400       -1.8965539        1.5210906
             4   0       2.4117900       12.9137000        2.1485200          0.1027726        2.5381085       -3.4328416
             5   0       0.0881320       13.2160000        4.1251300        -14.5606221       -7.4065291       -6.3213006