BEGIN_CFG
 Size
    18
 Supercell
         2.459512      0.000000      0.000000
         0.000000     18.000000      0.000000
         0.000000      0.000000     14.057283
 AtomData:  id type       cartes_x      cartes_y      cartes_z           fx          fy          fz
             1    0       0.000000      8.967505     14.028273    -0.000026   -0.000009   -0.000019
             2    0       1.229756      8.446650      0.443766     0.000023    0.000018    0.000014
             3    0       1.229756      7.425422      1.446998    -0.000017   -0.000020   -0.000019
             4    0       2.459512      6.965027      1.953229     0.000013    0.000018    0.000005
             5    0       0.000000      6.965031      4.071318    -0.000006   -0.000001   -0.000015
             6    0       1.229756      7.425425      4.577550     0.000009    0.000018    0.000021
             7    0       1.229756      8.446651      5.580785    -0.000018   -0.000018    0.000006
             8    0       2.459512      8.967504      6.053564     0.000021    0.000013    0.000001
             9    0       0.000000     10.036586      6.999631    -0.000018    0.000005   -0.000026
            10    0       1.229756     10.557442      7.472407     0.000015   -0.000012    0.000025
            11    0       1.229756     11.578669      8.475639    -0.000010    0.000012   -0.000032
            12    0       2.459512     12.039065      8.981870     0.000008   -0.000007    0.000020
            13    0       0.000000     12.039061     11.099960    -0.000009   -0.000014   -0.000001
            14    0       1.229756     11.578666     11.606192     0.000013    0.000018   -0.000015
            15    0       1.229756     10.557441     12.609426    -0.000023    0.000001    0.000016
            16    0       2.459512     10.036588     13.082205     0.000027   -0.000012    0.000006
            17    1       2.459512      6.052606      3.012275    -0.000000   -0.000018    0.000006
            18    1       0.000000     12.951486     10.040917     0.000000    0.000007    0.000008
 Energy
      -3358.529533378625
 PlusStress:  xx          yy          zz          yz          xz          xy
        -0.61923     0.00004     0.07356    -0.00000     0.00001    -0.00000
 Feature   EFS_by	MultiMTP93
 Feature   MV_grade	0.505851
 Feature   from	relaxation_OK
 Feature   min_dist	1.397888
END_CFG

BEGIN_CFG
 Size
    18
 Supercell
         2.459512      0.000000      0.000000
         0.000000     18.000000      0.000000
         0.000000      0.000000     14.300475
 AtomData:  id type       cartes_x      cartes_y      cartes_z           fx          fy          fz
             1    0       0.000000      8.972231     14.277783    -0.000019   -0.000016    0.000003
             2    0       1.229756      8.464701      0.463780     0.000016   -0.000002    0.000003
             3    0       1.229756      7.465977      1.489333    -0.000010   -0.000004    0.000012
             4    0       2.459512      7.011917      2.001505     0.000007    0.000005   -0.000010
             5    0       2.459512      7.011917      4.127270     0.000003    0.000000   -0.000000
             6    0       1.229756      7.465977      4.639442    -0.000003   -0.000034   -0.000037
             7    0       1.229756      8.464701      5.664995    -0.000005    0.000029    0.000029
             8    0       2.459512      8.972230      6.151468     0.000011    0.000029    0.000019
             9    0       0.000000     10.014185      7.127545    -0.000026   -0.000055   -0.000018
            10    0       1.229756     10.521713      7.614018     0.000026    0.000039    0.000000
            11    0       1.229756     11.520439      8.639571    -0.000017   -0.000016    0.000007
            12    0       2.459512     11.974498      9.151743     0.000012    0.000004   -0.000011
            13    0       0.000000     11.974498     11.277508    -0.000004    0.000011   -0.000018
            14    0       1.229756     11.520439     11.789678     0.000006   -0.000049    0.000066
            15    0       1.229756     10.521714     12.815234    -0.000014    0.000006   -0.000037
            16    0       2.459512     10.014183     13.301706     0.000017    0.000033   -0.000000
            17    1       0.000000      6.104847      3.064388    -0.000001    0.000005    0.000008
            18    1       0.000000     12.881567     10.214625    -0.000001    0.000016   -0.000014
 Energy
      -3358.531970666833
 PlusStress:  xx          yy          zz          yz          xz          xy
        -0.55547     0.00001     0.21151    -0.00002     0.00001    -0.00000
 Feature   EFS_by	MultiMTP93
 Feature   MV_grade	0.430296
 Feature   from	relaxation_OK
 Feature   min_dist	1.397317
END_CFG

BEGIN_CFG
 Size
    18
 Supercell
         2.459512      0.000000      0.000000
         0.000000     18.000000      0.000000
         0.000000      0.000000     14.539312
 AtomData:  id type       cartes_x      cartes_y      cartes_z           fx          fy          fz
             1    0       2.459512      8.976610     14.522043     0.000012   -0.000011    0.000005
             2    0       1.229756      8.482310      0.481911    -0.000007    0.000005    0.000002
             3    0       1.229756      7.506274      1.529099    -0.000011    0.000042   -0.000035
             4    0       2.459512      7.059143      2.047671     0.000012   -0.000006    0.000002
             5    0       2.459512      7.059143      4.183463     0.000014    0.000021    0.000026
             6    0       1.229756      7.506274      4.702035    -0.000015    0.000002   -0.000005
             7    0       1.229756      8.482309      5.749222     0.000002    0.000044    0.000064
             8    0       2.459512      8.976610      6.248403     0.000002    0.000002   -0.000036
             9    0       0.000000      9.991829      7.252387    -0.000009   -0.000088   -0.000046
            10    0       1.229756     10.486127      7.751566     0.000012    0.000062    0.000037
            11    0       1.229756     11.462163      8.798754    -0.000025   -0.000027   -0.000013
            12    0       2.459512     11.909294      9.317325     0.000022    0.000062    0.000066
            13    0       2.459512     11.909294     11.453119     0.000022    0.000035   -0.000032
            14    0       1.229756     11.462163     11.971691    -0.000026   -0.000011    0.000003
            15    0       1.229756     10.486128     13.018879     0.000015    0.000013   -0.000035
            16    0       0.000000      9.991828     13.518057    -0.000014   -0.000029    0.000047
            17    1       0.000000      6.158781      3.115567    -0.000002   -0.000060   -0.000021
            18    1       0.000000     12.809659     10.385223    -0.000003   -0.000058   -0.000028
 Energy
      -3358.536697947988
 PlusStress:  xx          yy          zz          yz          xz          xy
        -0.45388     0.00001     0.36716     0.00000    -0.00000     0.00001
 Feature   EFS_by	MultiMTP93
 Feature   MV_grade	0.400159
 Feature   from	relaxation_OK
 Feature   min_dist	1.396801
END_CFG

BEGIN_CFG
 Size
    18
 Supercell
         2.459512      0.000000      0.000000
         0.000000     18.000000      0.000000
         0.000000      0.000000     14.773719
 AtomData:  id type       cartes_x      cartes_y      cartes_z           fx          fy          fz
             1    0       2.459512      8.981665     14.762087     0.000034   -0.000008    0.000000
             2    0       1.229756      8.501174      0.500184    -0.000023    0.000028   -0.000023
             3    0       1.229756      7.548023      1.568170     0.000015    0.000008   -0.000004
             4    0       0.000000      7.107731      2.092754    -0.000011    0.000016   -0.000031
             5    0       0.000000      7.107731      4.238840    -0.000009    0.000006    0.000015
             6    0       1.229756      7.548023      4.763424     0.000012   -0.000029   -0.000043
             7    0       1.229756      8.501175      5.831410    -0.000015    0.000014    0.000022
             8    0       2.459512      8.981665      6.343226     0.000024   -0.000013   -0.000024
             9    0       0.000000      9.968501      7.375228    -0.000052   -0.000009   -0.000000
            10    0       1.229756     10.448990      7.887043     0.000051    0.000025    0.000022
            11    0       1.229756     11.402143      8.955029    -0.000040   -0.000005    0.000004
            12    0       2.459512     11.842434      9.479613     0.000030    0.000015    0.000009
            13    0       2.459512     11.842434     11.625700     0.000033    0.000022   -0.000017
            14    0       1.229756     11.402143     12.150283    -0.000045   -0.000031    0.000034
            15    0       1.229756     10.448991     13.218270     0.000062    0.000008   -0.000022
            16    0       0.000001      9.968501     13.730085    -0.000064   -0.000014    0.000027
            17    1       0.000000      6.214247      3.165796     0.000000   -0.000015    0.000062
            18    1       0.000000     12.735919     10.552657    -0.000003   -0.000018   -0.000032
 Energy
      -3358.543723296481
 PlusStress:  xx          yy          zz          yz          xz          xy
        -0.36200    -0.00001     0.44422    -0.00010    -0.00000     0.00003
 Feature   EFS_by	MultiMTP93
 Feature   MV_grade	0.388777
 Feature   from	relaxation_OK
 Feature   min_dist	1.396329
END_CFG

BEGIN_CFG
 Size
    18
 Supercell
         2.459512      0.000000      0.000000
         0.000000     18.000000      0.000000
         0.000000      0.000000     15.003626
 AtomData:  id type       cartes_x      cartes_y      cartes_z           fx          fy          fz
             1    0       2.459512      8.988917     14.999212     0.000016    0.000045   -0.000048
             2    0       1.229756      8.523910      0.521154    -0.000011   -0.000048    0.000051
             3    0       1.229756      7.594014      1.609187     0.000017   -0.000012    0.000016
             4    0       0.000000      7.159640      2.138449    -0.000015   -0.000004    0.000004
             5    0       0.000000      7.159641      4.291677    -0.000021   -0.000029   -0.000032
             6    0       1.229756      7.594013      4.820938     0.000025    0.000024    0.000030
             7    0       1.229756      8.523910      5.908971    -0.000020    0.000002    0.000001
             8    0       2.459512      8.988918      6.434541     0.000023   -0.000009   -0.000008
             9    0       0.000000      9.942686      7.497398    -0.000030    0.000009    0.000005
            10    0       1.229756     10.407694      8.022967     0.000026    0.000013    0.000019
            11    0       1.229756     11.337591      9.111001    -0.000007   -0.000013   -0.000020
            12    0       0.000000     11.771964      9.640263     0.000003   -0.000003   -0.000002
            13    0       2.459512     11.771964     11.793489     0.000009   -0.000027    0.000034
            14    0       1.229756     11.337590     12.322752    -0.000014    0.000028   -0.000032
            15    0       1.229756     10.407695     13.410784     0.000032   -0.000058    0.000070
            16    0       0.000000      9.942685     13.936355    -0.000033    0.000028   -0.000035
            17    1       2.459512      6.271395      3.215063     0.000001    0.000027   -0.000026
            18    1       0.000000     12.660208     10.716876    -0.000000    0.000028   -0.000027
 Energy
      -3358.549888271729
 PlusStress:  xx          yy          zz          yz          xz          xy
        -0.35856     0.00001     0.34631     0.00000     0.00000     0.00002
 Feature   EFS_by	MultiMTP93
 Feature   MV_grade	0.408179
 Feature   from	relaxation_OK
 Feature   min_dist	1.395734
END_CFG

BEGIN_CFG
 Size
    18
 Supercell
         2.459512      0.000000      0.000000
         0.000000     18.000000      0.000000
         0.000000      0.000000     15.228964
 AtomData:  id type       cartes_x      cartes_y      cartes_z           fx          fy          fz
             1    0       2.459512      8.996626      0.002508     0.000054    0.000000    0.000015
             2    0       1.229756      8.547589      0.541444    -0.000044   -0.000002   -0.000017
             3    0       1.229756      7.641481      1.649090     0.000017    0.000031   -0.000021
             4    0       0.000000      7.213267      2.182988    -0.000010    0.000016   -0.000031
             5    0       2.459512      7.213267      4.343711     0.000022    0.000002    0.000004
             6    0       1.229756      7.641482      4.877609    -0.000032    0.000011    0.000011
             7    0       1.229756      8.547589      5.985255     0.000060   -0.000013   -0.000021
             8    0       0.000001      8.996627      6.524191    -0.000071   -0.000012   -0.000009
             9    0       2.459512      9.916132      7.616990     0.000070    0.000000   -0.000001
            10    0       1.229757     10.365169      8.155925    -0.000058    0.000009    0.000012
            11    0       1.229756     11.271276      9.263571     0.000031   -0.000011   -0.000014
            12    0       0.000000     11.699492      9.797469    -0.000021    0.000018    0.000027
            13    0       2.459512     11.699492     11.958193     0.000012   -0.000002   -0.000009
            14    0       1.229756     11.271275     12.492091    -0.000020    0.000048   -0.000048
            15    0       1.229756     10.365170     13.599737     0.000046   -0.000024    0.000014
            16    0       0.000000      9.916132     14.138672    -0.000056   -0.000012    0.000023
            17    1       0.000000      6.330709      3.263349    -0.000000   -0.000031    0.000051
            18    1       0.000000     12.582050     10.877831     0.000000   -0.000028    0.000014
 Energy
      -3358.554059652189
 PlusStress:  xx          yy          zz          yz          xz          xy
        -0.36510    -0.00000     0.20574    -0.00005    -0.00004    -0.00001
 Feature   EFS_by	MultiMTP93
 Feature   MV_grade	0.391982
 Feature   from	relaxation_OK
 Feature   min_dist	1.395022
END_CFG

BEGIN_CFG
 Size
    18
 Supercell
         2.459512      0.000000      0.000000
         0.000000     18.000000      0.000000
         0.000000      0.000000     15.449662
 AtomData:  id type       cartes_x      cartes_y      cartes_z           fx          fy          fz
             1    0       0.000000      9.004688      0.009034    -0.000042   -0.000008    0.000014
             2    0       1.229756      8.572046      0.560879     0.000034    0.000006   -0.000012
             3    0       1.229756      7.690343      1.687749     0.000000   -0.000031    0.000036
             4    0       0.000000      7.268585      2.226281    -0.000005    0.000013   -0.000004
             5    0       0.000000      7.268585      4.395003    -0.000002    0.000008   -0.000007
             6    0       1.229756      7.690343      4.933534    -0.000002   -0.000008    0.000003
             7    0       1.229756      8.572046      6.060406     0.000033   -0.000018   -0.000037
             8    0       0.000000      9.004688      6.612249    -0.000036   -0.000023   -0.000010
             9    0       2.459512      9.888946      7.733865     0.000011    0.000050    0.000045
            10    0       1.229756     10.321590      8.285709    -0.000008    0.000001    0.000015
            11    0       1.229756     11.203293      9.412581     0.000028   -0.000012   -0.000025
            12    0       0.000000     11.625051      9.951113    -0.000024   -0.000026   -0.000021
            13    0       0.000000     11.625050     12.119833    -0.000032   -0.000019    0.000016
            14    0       1.229756     11.203293     12.658365     0.000039   -0.000025    0.000032
            15    0       1.229756     10.321589     13.785236    -0.000025    0.000035   -0.000035
            16    0       2.459512      9.888947     14.337081     0.000029    0.000006   -0.000015
            17    1       0.000000      6.392284      3.310642     0.000001    0.000003    0.000002
            18    1       2.459512     12.501350     11.035473     0.000002    0.000045    0.000004
 Energy
      -3358.555784425395
 PlusStress:  xx          yy          zz          yz          xz          xy
        -0.37823     0.00007     0.02714    -0.00000     0.00000    -0.00002
 Feature   EFS_by	MultiMTP93
 Feature   MV_grade	0.359083
 Feature   from	relaxation_OK
 Feature   min_dist	1.394180
END_CFG

BEGIN_CFG
 Size
    18
 Supercell
         2.459512      0.000000      0.000000
         0.000000     18.000000      0.000000
         0.000000      0.000000     15.665654
 AtomData:  id type       cartes_x      cartes_y      cartes_z           fx          fy          fz
             1    0       0.000000      9.012953      0.015049    -0.000003   -0.000008   -0.000010
             2    0       1.229756      8.597022      0.579267     0.000003    0.000006    0.000008
             3    0       1.229756      7.740378      1.724991     0.000003   -0.000000   -0.000003
             4    0       0.000000      7.325445      2.268207    -0.000003   -0.000001    0.000001
             5    0       2.459512      7.325445      4.445645     0.000002    0.000002    0.000002
             6    0       1.229756      7.740378      4.988861    -0.000003   -0.000001   -0.000004
             7    0       1.229756      8.597022      6.134584     0.000006   -0.000006    0.000007
             8    0       0.000000      9.012953      6.698803    -0.000005    0.000007   -0.000012
             9    0       0.000000      9.861287      7.847875    -0.000005   -0.000007    0.000012
            10    0       1.229756     10.277217      8.412095     0.000006    0.000006   -0.000007
            11    0       1.229756     11.133862      9.557818    -0.000003    0.000001    0.000004
            12    0       2.459512     11.548795     10.101034     0.000002   -0.000002   -0.000002
            13    0       0.000000     11.548795     12.278471    -0.000003    0.000001   -0.000001
            14    0       1.229756     11.133862     12.821688     0.000003    0.000000    0.000003
            15    0       1.229756     10.277217     13.967411     0.000002   -0.000006   -0.000008
            16    0       0.000000      9.861286     14.531630    -0.000003    0.000008    0.000010
            17    1       2.459512      6.456140      3.356926     0.000001    0.000000   -0.000000
            18    1       2.459512     12.418100     11.189753     0.000001   -0.000000    0.000000
 Energy
      -3358.554740023430
 PlusStress:  xx          yy          zz          yz          xz          xy
        -0.39425    -0.00000    -0.18335     0.00000     0.00000    -0.00000
 Feature   EFS_by	MultiMTP93
 Feature   MV_grade	0.326179
 Feature   from	relaxation_OK
 Feature   min_dist	1.393198
END_CFG

BEGIN_CFG
 Size
    18
 Supercell
         2.459512      0.000000      0.000000
         0.000000     18.000000      0.000000
         0.000000      0.000000     15.876874
 AtomData:  id type       cartes_x      cartes_y      cartes_z           fx          fy          fz
             1    0       0.000000      9.021194      0.020415    -0.000013    0.000024   -0.000018
             2    0       1.229756      8.622119      0.596371     0.000018   -0.000014    0.000007
             3    0       1.229756      7.791177      1.760553    -0.000019   -0.000008    0.000014
             4    0       2.459512      7.383520      2.308576     0.000014    0.000010   -0.000014
             5    0       0.000000      7.383520      4.495799    -0.000005   -0.000010   -0.000015
             6    0       1.229756      7.791177      5.043821     0.000007    0.000011    0.000019
             7    0       1.229756      8.622119      6.208004    -0.000009    0.000015    0.000009
             8    0       2.459512      9.021195      6.783960     0.000007   -0.000008    0.000004
             9    0       2.459512      9.833382      7.958852     0.000007    0.000008   -0.000004
            10    0       1.229756     10.232459      8.534808    -0.000009   -0.000015   -0.000009
            11    0       1.229756     11.063400      9.698990     0.000007   -0.000011   -0.000019
            12    0       0.000000     11.471057     10.247013    -0.000005    0.000010    0.000015
            13    0       2.459512     11.471057     12.434235     0.000014   -0.000010    0.000014
            14    0       1.229756     11.063400     12.982259    -0.000019    0.000008   -0.000014
            15    0       1.229756     10.232458     14.146441     0.000018    0.000014   -0.000007
            16    0       0.000000      9.833383     14.722397    -0.000013   -0.000024    0.000018
            17    1       0.000000      6.522205      3.402187    -0.000000   -0.000005   -0.000007
            18    1       0.000000     12.332372     11.340624    -0.000000    0.000005    0.000007
 Energy
      -3358.550754479285
 PlusStress:  xx          yy          zz          yz          xz          xy
        -0.40862     0.00000    -0.41591     0.00003     0.00000    -0.00000
 Feature   EFS_by	MultiMTP93
 Feature   MV_grade	0.306362
 Feature   from	relaxation_OK
 Feature   min_dist	1.392067
END_CFG

BEGIN_CFG
 Size
    18
 Supercell
         2.459512      0.000000      0.000000
         0.000000     18.000000      0.000000
         0.000000      0.000000     16.083258
 AtomData:  id type       cartes_x      cartes_y      cartes_z           fx          fy          fz
             1    0       0.000000      9.029027      0.024937    -0.000008    0.000003    0.000007
             2    0       1.229756      8.646637      0.611838     0.000006    0.000008   -0.000028
             3    0       1.229756      7.841922      1.794009     0.000002   -0.000008    0.000030
             4    0       0.000000      7.442121      2.347074    -0.000002   -0.000007   -0.000003
             5    0       0.000000      7.442121      4.545751    -0.000005   -0.000009   -0.000004
             6    0       1.229756      7.841922      5.098815     0.000006    0.000004    0.000001
             7    0       1.229756      8.646637      6.280987    -0.000002   -0.000001   -0.000005
             8    0       0.000000      9.029027      6.867887     0.000001    0.000001    0.000007
             9    0       0.000000      9.805628      8.066566     0.000001    0.000000   -0.000006
            10    0       1.229756     10.188018      8.653466    -0.000004    0.000011    0.000021
            11    0       1.229756     10.992733      9.835639     0.000014   -0.000013   -0.000026
            12    0       0.000000     11.392534     10.388703    -0.000012   -0.000005    0.000002
            13    0       0.000000     11.392534     12.587380    -0.000009   -0.000011    0.000002
            14    0       1.229756     10.992732     13.140444     0.000012    0.000007    0.000003
            15    0       1.229756     10.188018     14.322616    -0.000006   -0.000004    0.000001
            16    0       2.459512      9.805628     14.909516     0.000005    0.000000    0.000000
            17    1       0.000000      6.590219      3.446412     0.000000    0.000011   -0.000004
            18    1       2.459512     12.244435     11.488041     0.000001    0.000012    0.000004
 Energy
      -3358.543838741484
 PlusStress:  xx          yy          zz          yz          xz          xy
        -0.41506     0.00000    -0.65615    -0.00001     0.00000    -0.00000
 Feature   EFS_by	MultiMTP93
 Feature   MV_grade	0.405543
 Feature   from	relaxation_OK
 Feature   min_dist	1.390784
END_CFG

BEGIN_CFG
 Size
    18
 Supercell
         2.459512      0.000000      0.000000
         0.000000     18.000000      0.000000
         0.000000      0.000000     16.284743
 AtomData:  id type       cartes_x      cartes_y      cartes_z           fx          fy          fz
             1    0       2.459512      9.035724      0.028284     0.000008    0.000020   -0.000040
             2    0       1.229756      8.669242      0.625059    -0.000012    0.000007    0.000012
             3    0       1.229756      7.890936      1.824566     0.000008   -0.000026    0.000014
             4    0       0.000000      7.499806      2.383112    -0.000005   -0.000001    0.000005
             5    0       0.000000      7.499806      4.596064    -0.000003    0.000008    0.000009
             6    0       1.229756      7.890936      5.154609     0.000005   -0.000012    0.000005
             7    0       1.229756      8.669241      6.354116    -0.000010    0.000036    0.000028
             8    0       2.459512      9.035723      6.950891     0.000004    0.000042    0.000078
             9    0       2.459512      9.778755      8.170656     0.000023   -0.000036   -0.000066
            10    0       1.229756     10.145237      8.767431    -0.000026   -0.000019   -0.000008
            11    0       1.229756     10.923543      9.966938     0.000017   -0.000032   -0.000069
            12    0       0.000000     11.314672     10.525482    -0.000012    0.000032    0.000049
            13    0       0.000000     11.314673     12.738434    -0.000010   -0.000039    0.000050
            14    0       1.229756     10.923542     13.296980     0.000015    0.000016    0.000002
            15    0       1.229756     10.145237     14.496487    -0.000023   -0.000028    0.000016
            16    0       2.459512      9.778754     15.093263     0.000019    0.000003    0.000008
            17    1       0.000000      6.659573      3.489589     0.000001   -0.000008   -0.000060
            18    1       0.000000     12.154905     11.631959     0.000001    0.000035   -0.000033
 Energy
      -3358.534254048042
 PlusStress:  xx          yy          zz          yz          xz          xy
        -0.40289     0.00002    -0.87890     0.00005    -0.00000    -0.00001
 Feature   EFS_by	MultiMTP93
 Feature   MV_grade	0.529130
 Feature   from	relaxation_OK
 Feature   min_dist	1.389344
END_CFG

BEGIN_CFG
 Size
    18
 Supercell
         2.459512      0.000000      0.000000
         0.000000     18.000000      0.000000
         0.000000      0.000000     16.481267
 AtomData:  id type       cartes_x      cartes_y      cartes_z           fx          fy          fz
             1    0       2.459512      9.039689      0.029732     0.000050    0.000045    0.000003
             2    0       1.229757      8.686975      0.634711    -0.000047   -0.000069    0.000029
             3    0       1.229756      7.934345      1.850452     0.000038    0.000050   -0.000019
             4    0       0.000000      7.553258      2.415372    -0.000028   -0.000007   -0.000022
             5    0       0.000000      7.553256      4.648031    -0.000000   -0.000044   -0.000045
             6    0       1.229756      7.934342      5.212950    -0.000005    0.000042    0.000028
             7    0       1.229756      8.686971      6.428690     0.000038    0.000014    0.000033
             8    0       0.000001      9.039689      7.033669    -0.000052   -0.000033   -0.000035
             9    0       2.459512      9.754364      8.270365     0.000057    0.000056    0.000001
            10    0       1.229756     10.107085      8.875342    -0.000053   -0.000055    0.000004
            11    0       1.229755     10.859711     10.091083     0.000046    0.000024   -0.000002
            12    0       0.000000     11.240800     10.656003    -0.000034   -0.000020    0.000002
            13    0       0.000000     11.240796     12.888662    -0.000009   -0.000029    0.000038
            14    0       1.229756     10.859708     13.453582     0.000007    0.000008   -0.000025
            15    0       1.229756     10.107080     14.669323     0.000029    0.000009    0.000013
            16    0       0.000000      9.754363     15.274302    -0.000043   -0.000012   -0.000018
            17    1       2.459512      6.728899      3.531700     0.000002   -0.000006    0.000031
            18    1       2.459512     12.065154     11.772334     0.000003    0.000027   -0.000016
 Energy
      -3358.522695858637
 PlusStress:  xx          yy          zz          yz          xz          xy
        -0.34916     0.00002    -1.02874    -0.00000    -0.00004    -0.00000
 Feature   EFS_by	MultiMTP93
 Feature   MV_grade	0.575382
 Feature   from	relaxation_OK
 Feature   min_dist	1.387715
END_CFG

BEGIN_CFG
 Size
    18
 Supercell
         2.459512      0.000000      0.000000
         0.000000     18.000000      0.000000
         0.000000      0.000000     16.672771
 AtomData:  id type       cartes_x      cartes_y      cartes_z           fx          fy          fz
             1    0       0.000001      9.036377      0.027087    -0.000007   -0.000002   -0.000014
             2    0       1.229756      8.691323      0.636795     0.000010   -0.000017    0.000010
             3    0       1.229755      7.960840      1.866350     0.000011   -0.000009   -0.000018
             4    0       2.459510      7.592993      2.439896    -0.000004   -0.000015    0.000076
             5    0       2.459508      7.592974      4.705577     0.000017    0.000024   -0.000012
             6    0       1.229753      7.960817      5.279127    -0.000007    0.000018    0.000042
             7    0       1.229754      8.691299      6.508685    -0.000032    0.000007    0.000005
             8    0       2.459510      9.036359      7.118391     0.000030    0.000003   -0.000003
             9    0       2.459512      9.737031      8.363447     0.000022   -0.000005   -0.000015
            10    0       1.229756     10.082090      8.973153    -0.000025   -0.000010    0.000014
            11    0       1.229757     10.812562     10.202717    -0.000037   -0.000019    0.000002