BEGIN_CFG
 Size
    18
 Supercell
         2.459512      0.000000      0.000000
         0.000000     30.000000      0.000000
         0.000000      0.000000     14.420442
 AtomData:  id type       cartes_x      cartes_y      cartes_z           fx          fy          fz
             1    0       0.029117     15.014331     14.390395     0.000015   -0.000034    0.000029
             2    0       1.258873     14.523039      0.474761    -0.000022    0.000016    0.000002
             3    0       1.258875     13.524613      1.499345    -0.000025   -0.000000    0.000020
             4    0       0.029118     13.064584      2.006060    -0.000014    0.000008    0.000017
             5    0       0.029108     13.064584      4.123728     0.000030    0.000021   -0.000003
             6    0       1.258864     13.524612      4.630444     0.000001   -0.000001   -0.000033
             7    0       1.258865     14.523038      5.655028     0.000023   -0.000004    0.000002
             8    0       0.029110     15.014328      6.159838     0.000008   -0.000032    0.000004
             9    0       0.029113     16.008956      7.180172     0.000003   -0.000014   -0.000022
            10    0       1.258870     16.500242      7.684984    -0.000033   -0.000002   -0.000010
            11    0       1.258871     17.498661      8.709572     0.000007   -0.000001   -0.000005
            12    0       0.029116     17.958687      9.216288    -0.000039    0.000019   -0.000019
            13    0       0.029111     17.958686     11.333944     0.000022    0.000046    0.000034
            14    0       1.258868     17.498664     11.840662     0.000006   -0.000003    0.000008
            15    0       1.258871     16.500250     12.865256    -0.000012   -0.000004   -0.000013
            16    0       0.029115     16.008965     13.370067     0.000005   -0.000049    0.000011
            17    1       0.029113     12.150823      3.064894     0.000004    0.000022   -0.000009
            18    1       0.029110     18.872451     10.275117     0.000022    0.000012   -0.000014
 Energy
      -3358.462088334707
 PlusStress:  xx          yy          zz          yz          xz          xy
         1.36494     0.00003     0.74976    -0.00003    -0.00012     0.00000
 Feature   EFS_by	MultiMTP93
 Feature   MV_grade	0.720479
 Feature   from	relaxation_OK
 Feature   min_dist	1.398600
END_CFG

BEGIN_CFG
 Size
    18
 Supercell
         2.459512      0.000000      0.000000
         0.000000     30.000000      0.000000
         0.000000      0.000000     14.420442
 AtomData:  id type       cartes_x      cartes_y      cartes_z           fx          fy          fz
             1    0       2.433429     14.982668     14.412534     0.000006    0.000019    0.000010
             2    0       1.203672     14.491385      0.496907     0.000029   -0.000002   -0.000022
             3    0       1.203668     13.492971      1.521502     0.000046   -0.000011   -0.000025
             4    0       2.433425     13.032944      2.028217     0.000038   -0.000013   -0.000025
             5    0       2.433446     13.032938      4.145874    -0.000055   -0.000033    0.000027
             6    0       1.203690     13.492962      4.652592    -0.000042   -0.000004   -0.000010
             7    0       1.203685     14.491381      5.677180    -0.000000    0.000035    0.000006
             8    0       2.433440     14.982670      6.181988    -0.000034   -0.000009   -0.000011
             9    0       2.433432     15.977306      7.202314    -0.000009    0.000004    0.000009
            10    0       1.203674     16.468597      7.707122     0.000038    0.000021   -0.000007
            11    0       1.203669     17.467026      8.731701     0.000065   -0.000027    0.000026
            12    0       2.433425     17.927052      9.238418     0.000025   -0.000013    0.000028
            13    0       2.433440     17.927035     11.356085    -0.000035   -0.000005   -0.000017
            14    0       1.203684     17.467005     11.862798    -0.000042   -0.000006    0.000005
            15    0       1.203680     16.468581     12.887385    -0.000027    0.000013   -0.000013
            16    0       2.433435     15.977294     13.392196     0.000000    0.000006    0.000016
            17    1       2.433436     12.119176      3.087043    -0.000005    0.000013   -0.000002
            18    1       2.433432     18.840804     10.297258     0.000002    0.000010    0.000006
 Energy
      -3358.462088332977
 PlusStress:  xx          yy          zz          yz          xz          xy
         1.36492     0.00002     0.74975     0.00019     0.00029     0.00007
 Feature   EFS_by	MultiMTP93
 Feature   MV_grade	0.720475
 Feature   from	relaxation_OK
 Feature   min_dist	1.398601
END_CFG

BEGIN_CFG
 Size
    18
 Supercell
         2.459512      0.000000      0.000000
         0.000000     30.000000      0.000000
         0.000000      0.000000     14.420442
 AtomData:  id type       cartes_x      cartes_y      cartes_z           fx          fy          fz
             1    0       2.453404     15.008241     14.411172     0.000045    0.000043    0.000002
             2    0       1.223648     14.516953      0.495542     0.000053    0.000011    0.000014
             3    0       1.223654     13.518539      1.520141     0.000039   -0.000018   -0.000020
             4    0       2.453413     13.058514      2.026859     0.000016    0.000014   -0.000028
             5    0       2.453456     13.058516      4.144525    -0.000062    0.000007   -0.000033
             6    0       1.223701     13.518546      4.651239    -0.000051   -0.000004    0.000025
             7    0       1.223698     14.516966      5.675828    -0.000017   -0.000054    0.000002
             8    0       2.453453     15.008250      6.180642    -0.000016   -0.000028   -0.000014
             9    0       2.453448     16.002871      7.200982     0.000027    0.000026   -0.000032
            10    0       1.223691     16.494159      7.705791    -0.000016    0.000021   -0.000032
            11    0       1.223687     17.492592      8.730364     0.000023   -0.000015    0.000019
            12    0       2.453442     17.952622      9.237076    -0.000007   -0.000002    0.000023
            13    0       2.453421     17.952621     11.354733     0.000006    0.000023    0.000019
            14    0       1.223663     17.492595     11.861449    -0.000027   -0.000034    0.000018
            15    0       1.223654     16.494170     12.886035    -0.000007   -0.000024   -0.000017
            16    0       2.453408     16.002878     13.390843     0.000056   -0.000036    0.000035
            17    1       2.453438     12.144753      3.085693    -0.000025    0.000048   -0.000005
            18    1       2.453437     18.866387     10.295904    -0.000038    0.000020    0.000024
 Energy
      -3358.462088330221
 PlusStress:  xx          yy          zz          yz          xz          xy
         1.36490    -0.00012     0.74961     0.00036     0.00017     0.00005
 Feature   EFS_by	MultiMTP93
 Feature   MV_grade	0.720490
 Feature   from	relaxation_OK
 Feature   min_dist	1.398601
END_CFG

BEGIN_CFG
 Size
    18
 Supercell
         2.459512      0.000000      0.000000
         0.000000     30.000000      0.000000
         0.000000      0.000000     14.420442
 AtomData:  id type       cartes_x      cartes_y      cartes_z           fx          fy          fz
             1    0       0.000501     14.984293      0.022585    -0.000010    0.000030   -0.000004
             2    0       1.230257     14.493005      0.527396     0.000003   -0.000026    0.000003
             3    0       1.230256     13.494583      1.551985    -0.000050    0.000031   -0.000024
             4    0       0.000499     13.034557      2.058700     0.000063   -0.000004    0.000020
             5    0       0.000501     13.034557      4.176367     0.000011    0.000039    0.000008
             6    0       1.230257     13.494586      4.683082    -0.000012   -0.000006   -0.000003
             7    0       1.230258     14.493009      5.707669    -0.000025    0.000012    0.000033
             8    0       0.000501     14.984298      6.212481     0.000014   -0.000028   -0.000032
             9    0       0.000500     15.978928      7.232815     0.000002    0.000008    0.000003
            10    0       1.230256     16.470216      7.737626     0.000024   -0.000012   -0.000011
            11    0       1.230258     17.468638      8.762213    -0.000004   -0.000018   -0.000028
            12    0       0.000502     17.928665      9.268928    -0.000006    0.000015    0.000005
            13    0       0.000504     17.928665     11.386588    -0.000010    0.000009   -0.000016
            14    0       1.230259     17.468636     11.893301    -0.000011   -0.000003    0.000014
            15    0       1.230257     16.470213     12.917885     0.000004   -0.000000    0.000041
            16    0       0.000501     15.978926     13.422696     0.000019   -0.000042   -0.000002
            17    1       0.000500     12.120797      3.117534    -0.000005   -0.000010   -0.000001
            18    1       0.000504     18.842429     10.327758    -0.000008    0.000006   -0.000007
 Energy
      -3358.462088335535
 PlusStress:  xx          yy          zz          yz          xz          xy
         1.36488    -0.00008     0.74964    -0.00008     0.00004    -0.00008
 Feature   EFS_by	MultiMTP93
 Feature   MV_grade	0.720495
 Feature   from	relaxation_OK
 Feature   min_dist	1.398601
END_CFG

BEGIN_CFG
 Size
    18
 Supercell
         2.459512      0.000000      0.000000
         0.000000     30.000000      0.000000
         0.000000      0.000000     14.420442
 AtomData:  id type       cartes_x      cartes_y      cartes_z           fx          fy          fz
             1    0       2.436248     14.991243      0.000160    -0.000008   -0.000011   -0.000007
             2    0       1.206491     14.499954      0.504970     0.000005    0.000007   -0.000006
             3    0       1.206489     13.501529      1.529556     0.000011    0.000013   -0.000005
             4    0       2.436245     13.041501      2.036271     0.000014    0.000025   -0.000014
             5    0       2.436253     13.041502      4.153935    -0.000006    0.000002    0.000001
             6    0       1.206498     13.501529      4.660651    -0.000028   -0.000016   -0.000007
             7    0       1.206497     14.499948      5.685241    -0.000012   -0.000004   -0.000011
             8    0       2.436253     14.991235      6.190051    -0.000007    0.000002   -0.000014
             9    0       2.436251     15.985868      7.210380    -0.000004   -0.000003   -0.000004
            10    0       1.206495     16.477157      7.715188    -0.000014   -0.000004    0.000015
            11    0       1.206490     17.475578      8.739775     0.000021    0.000007    0.000004
            12    0       2.436246     17.935606      9.246489     0.000016    0.000012    0.000006
            13    0       2.436249     17.935612     11.364153    -0.000020   -0.000020   -0.000002
            14    0       1.206493     17.475584     11.870869    -0.000005    0.000003    0.000002
            15    0       1.206493     16.477162     12.895457     0.000003    0.000009    0.000011
            16    0       2.436249     15.985874     13.400269    -0.000012   -0.000007    0.000001
            17    1       2.436246     12.127740      3.095104     0.000021   -0.000008    0.000001
            18    1       2.436244     18.849371     10.305318     0.000024   -0.000005    0.000030
 Energy
      -3358.462088335338
 PlusStress:  xx          yy          zz          yz          xz          xy
         1.36492    -0.00005     0.74966     0.00023     0.00009     0.00004
 Feature   EFS_by	MultiMTP93
 Feature   MV_grade	0.720498
 Feature   from	relaxation_OK
 Feature   min_dist	1.398601
END_CFG

BEGIN_CFG
 Size
    18
 Supercell
         2.459512      0.000000      0.000000
         0.000000     30.000000      0.000000
         0.000000      0.000000     14.657073
 AtomData:  id type       cartes_x      cartes_y      cartes_z           fx          fy          fz
             1    0       0.029070     15.025389     14.656605     0.000045    0.000007   -0.000014
             2    0       1.258827     14.540626      0.510323     0.000056   -0.000009   -0.000013
             3    0       1.258833     13.552904      1.545312     0.000039   -0.000044   -0.000027
             4    0       0.029081     13.096054      2.054722     0.000032   -0.000039   -0.000041
             5    0       0.029138     13.095969      4.176551    -0.000011    0.000036   -0.000035
             6    0       1.258898     13.552800      4.685976    -0.000021    0.000034   -0.000088
             7    0       1.258906     14.540554      5.720929    -0.000030    0.000057    0.000045
             8    0       0.029152     15.025340      6.231696    -0.000034   -0.000015    0.000038
             9    0       0.029153     16.003505      7.268420    -0.000026   -0.000011    0.000014
            10    0       1.258908     16.483700      7.783730    -0.000035   -0.000004    0.000016
            11    0       1.258906     17.446820      8.845116    -0.000066   -0.000008    0.000018
            12    0       0.029146     17.890705      9.367633    -0.000033   -0.000034    0.000017
            13    0       0.029090     17.890671     11.520580     0.000024    0.000019    0.000030
            14    0       1.258842     17.446782     12.043095     0.000007    0.000018    0.000021
            15    0       1.258832     16.483684     13.104502     0.000052    0.000004    0.000018
            16    0       0.029073     16.003507     13.619832     0.000036    0.000016   -0.000005
            17    1       0.029113     12.185468      3.115602    -0.000022   -0.000016   -0.000006
            18    1       0.029120     18.781906     10.444119    -0.000012   -0.000011    0.000010
 Energy
      -3358.475883428495
 PlusStress:  xx          yy          zz          yz          xz          xy
         1.77649    -0.00001     0.97473     0.00064     0.00014    -0.00020
 Feature   EFS_by	MultiMTP93
 Feature   MV_grade	0.624286
 Feature   from	relaxation_OK
 Feature   min_dist	1.397520
END_CFG

BEGIN_CFG
 Size
    18
 Supercell
         2.459512      0.000000      0.000000
         0.000000     30.000000      0.000000
         0.000000      0.000000     14.657073
 AtomData:  id type       cartes_x      cartes_y      cartes_z           fx          fy          fz
             1    0       2.433433     14.993699      0.021640     0.000019   -0.000019    0.000010
             2    0       1.203677     14.508928      0.532424    -0.000016    0.000015   -0.000022
             3    0       1.203674     13.521203      1.567408     0.000046   -0.000009    0.000017
             4    0       2.433430     13.064367      2.076829    -0.000005   -0.000010   -0.000015
             5    0       2.433435     13.064367      4.198666    -0.000016    0.000019   -0.000002
             6    0       1.203679     13.521206      4.708084     0.000000   -0.000020    0.000007
             7    0       1.203678     14.508935      5.743065    -0.000001    0.000005    0.000018
             8    0       2.433434     14.993706      6.253847    -0.000017    0.000025    0.000007
             9    0       2.433432     15.971850      7.290593     0.000003    0.000020    0.000008
            10    0       1.203675     16.452040      7.805909     0.000020   -0.000019   -0.000008
            11    0       1.203675     17.415158      8.867296     0.000021    0.000016    0.000018
            12    0       2.433432     17.859048      9.389810     0.000004   -0.000009    0.000010
            13    0       2.433439     17.859045     11.542753    -0.000021   -0.000012   -0.000018
            14    0       1.203683     17.415153     12.065265    -0.000019   -0.000017    0.000008
            15    0       1.203680     16.452028     13.126649     0.000003    0.000021   -0.000011
            16    0       2.433436     15.971838     13.641965    -0.000011    0.000042   -0.000012
            17    1       2.433433     12.153828      3.137748    -0.000003   -0.000020   -0.000016
            18    1       2.433437     18.750269     10.466283    -0.000008   -0.000027    0.000002
 Energy
      -3358.475883448978
 PlusStress:  xx          yy          zz          yz          xz          xy
         1.77655    -0.00002     0.97479     0.00006     0.00009    -0.00006
 Feature   EFS_by	MultiMTP93
 Feature   MV_grade	0.624291
 Feature   from	relaxation_OK
 Feature   min_dist	1.397522
END_CFG

BEGIN_CFG
 Size
    18
 Supercell
         2.459512      0.000000      0.000000
         0.000000     30.000000      0.000000
         0.000000      0.000000     14.657073
 AtomData:  id type       cartes_x      cartes_y      cartes_z           fx          fy          fz
             1    0       2.453389     15.019299      0.020299     0.000008   -0.000041   -0.000004
             2    0       1.223634     14.534523      0.531080     0.000037   -0.000008   -0.000031
             3    0       1.223639     13.546781      1.566051     0.000017    0.000005    0.000008
             4    0       2.453399     13.089937      2.075467     0.000045    0.000040    0.000032
             5    0       2.453459     13.089932      4.197309    -0.000022    0.000014   -0.000015
             6    0       1.223708     13.546771      4.706730    -0.000000    0.000008   -0.000002
             7    0       1.223721     14.534501      5.741713    -0.000040   -0.000002    0.000013
             8    0       2.453480     15.019273      6.252496    -0.000083   -0.000017   -0.000004
             9    0       2.453480     15.997414      7.289247    -0.000065   -0.000014   -0.000008
            10    0       1.223722     16.477600      7.804566    -0.000044   -0.000009   -0.000002
            11    0       1.223714     17.440716      8.865956    -0.000056    0.000016   -0.000034
            12    0       2.453465     17.884609      9.388466    -0.000042    0.000022   -0.000029
            13    0       2.453397     17.884633     11.541402     0.000053   -0.000032   -0.000001
            14    0       1.223638     17.440744     12.063915     0.000034   -0.000008    0.000041
            15    0       1.223633     16.477626     13.125304     0.000042    0.000011    0.000016
            16    0       2.453388     15.997439     13.640622     0.000036    0.000007    0.000020
            17    1       2.453424     12.179396      3.136386     0.000033    0.000031   -0.000004
            18    1       2.453424     18.775847     10.464924     0.000046   -0.000023    0.000003
 Energy
      -3358.475883435084
 PlusStress:  xx          yy          zz          yz          xz          xy
         1.77652    -0.00030     0.97451    -0.00005     0.00010    -0.00004
 Feature   EFS_by	MultiMTP93
 Feature   MV_grade	0.624325
 Feature   from	relaxation_OK
 Feature   min_dist	1.397521
END_CFG

BEGIN_CFG
 Size
    18
 Supercell
         2.459512      0.000000      0.000000
         0.000000     30.000000      0.000000
         0.000000      0.000000     14.657073
 AtomData:  id type       cartes_x      cartes_y      cartes_z           fx          fy          fz
             1    0       0.000501     14.971633     14.649631     0.000008   -0.000012   -0.000014
             2    0       1.230258     14.491444      0.507875     0.000001   -0.000007    0.000001
             3    0       1.230260     13.528323      1.569261    -0.000005   -0.000001    0.000005
             4    0       0.000504     13.084432      2.091773    -0.000017    0.000014   -0.000001
             5    0       0.000501     13.084427      4.244715     0.000010    0.000015   -0.000005
             6    0       1.230256     13.528317      4.767228     0.000001    0.000006   -0.000004
             7    0       1.230256     14.491439      5.828613     0.000022   -0.000014   -0.000023
             8    0       0.000500     14.971629      6.343927    -0.000006   -0.000011    0.000002
             9    0       0.000501     15.949774      7.380671     0.000006   -0.000021    0.000010
            10    0       1.230257     16.434544      7.891453    -0.000002   -0.000010   -0.000009
            11    0       1.230258     17.422268      8.926438    -0.000010    0.000016   -0.000015
            12    0       0.000502     17.879104      9.435858    -0.000007    0.000021    0.000009
            13    0       0.000499     17.879105     11.557693     0.000016    0.000007   -0.000004
            14    0       1.230256     17.422268     12.067112    -0.000003   -0.000002    0.000021
            15    0       1.230256     16.434541     13.102097     0.000001    0.000005    0.000014
            16    0       0.000500     15.949772     13.612881     0.000008   -0.000011    0.000007
            17    1       0.000505     12.193207      3.168242    -0.000019    0.000000   -0.000006
            18    1       0.000502     18.789645     10.496775    -0.000005    0.000005    0.000012
 Energy
      -3358.475883449089
 PlusStress:  xx          yy          zz          yz          xz          xy
         1.77657     0.00004     0.97490     0.00014    -0.00006     0.00005
 Feature   EFS_by	MultiMTP93
 Feature   MV_grade	0.624276
 Feature   from	relaxation_OK
 Feature   min_dist	1.397522
END_CFG

BEGIN_CFG
 Size
    18
 Supercell
         2.459512      0.000000      0.000000
         0.000000     30.000000      0.000000
         0.000000      0.000000     14.657073
 AtomData:  id type       cartes_x      cartes_y      cartes_z           fx          fy          fz
             1    0       2.436247     15.002272      0.029710    -0.000000    0.000001   -0.000006
             2    0       1.206491     14.517500      0.540492     0.000000    0.000002   -0.000025
             3    0       1.206492     13.529768      1.575472     0.000004   -0.000003    0.000009
             4    0       2.436248     13.072929      2.084892    -0.000009    0.000023   -0.000004
             5    0       2.436251     13.072931      4.206730    -0.000008    0.000001    0.000001
             6    0       1.206495     13.529769      4.716150     0.000006   -0.000006    0.000002
             7    0       1.206496     14.517498      5.751133    -0.000008   -0.000002   -0.000011
             8    0       2.436252     15.002270      6.261913    -0.000012    0.000008   -0.000020
             9    0       2.436251     15.980418      7.298654     0.000006   -0.000002    0.000003
            10    0       1.206495     16.460608      7.813969    -0.000008   -0.000026    0.000011
            11    0       1.206494     17.423723      8.875359    -0.000011    0.000012    0.000005
            12    0       2.436250     17.867611      9.397873     0.000012    0.000013    0.000002
            13    0       2.436247     17.867610     11.550815    -0.000003   -0.000009    0.000001
            14    0       1.206491     17.423720     12.073328     0.000003   -0.000001    0.000005
            15    0       1.206491     16.460601     13.134716     0.000002    0.000003    0.000015
            16    0       2.436247     15.980413     13.650034     0.000004    0.000002   -0.000001
            17    1       2.436247     12.162392      3.145812     0.000014   -0.000006   -0.000004
            18    1       2.436247     18.758833     10.474344     0.000008   -0.000010    0.000017
 Energy
      -3358.475883449295
 PlusStress:  xx          yy          zz          yz          xz          xy
         1.77657    -0.00005     0.97477     0.00015     0.00001     0.00002
 Feature   EFS_by	MultiMTP93
 Feature   MV_grade	0.624303
 Feature   from	relaxation_OK
 Feature   min_dist	1.397521
END_CFG

BEGIN_CFG
 Size
    18
 Supercell
         2.459512      0.000000      0.000000
         0.000000     30.000000      0.000000
         0.000000      0.000000     14.889240
 AtomData:  id type       cartes_x      cartes_y      cartes_z           fx          fy          fz
             1    0       0.029091     15.013536     14.859540     0.000009    0.000018    0.000035
             2    0       1.258848     14.540616      0.492026     0.000034    0.000004    0.000004
             3    0       1.258853     13.588340      1.562790     0.000013   -0.000036   -0.000028
             4    0       0.029099     13.147396      2.087382     0.000008   -0.000007   -0.000017
             5    0       0.029128     13.147391      4.243337    -0.000004    0.000020   -0.000007
             6    0       1.258886     13.588338      4.767927    -0.000007   -0.000013    0.000004
             7    0       1.258891     14.540627      5.838677    -0.000015   -0.000009    0.000020
             8    0       0.029136     15.013551      6.360399    -0.000027    0.000012    0.000005
             9    0       0.029138     15.973197      7.414920    -0.000038    0.000008   -0.000019
            10    0       1.258893     16.446123      7.936640    -0.000024    0.000031    0.000024
            11    0       1.258891     17.398412      9.007393    -0.000028   -0.000033    0.000005
            12    0       0.029132     17.839353      9.531987    -0.000035   -0.000022    0.000017
            13    0       0.029094     17.839336     11.687951     0.000026    0.000007   -0.000012
            14    0       1.258848     17.398390     12.212541     0.000029    0.000001    0.000001
            15    0       1.258846     16.446105     13.283296     0.000038   -0.000005   -0.000019
            16    0       0.029089     15.973180     13.805016     0.000017   -0.000010    0.000012
            17    1       0.029114     12.258973      3.165359    -0.000006    0.000014   -0.000015
            18    1       0.029112     18.727761     10.609976     0.000011    0.000018   -0.000012
 Energy
      -3358.493469515376
 PlusStress:  xx          yy          zz          yz          xz          xy
         2.08223     0.00000     1.10489     0.00009    -0.00007     0.00001
 Feature   EFS_by	MultiMTP93
 Feature   MV_grade	0.517627
 Feature   from	relaxation_OK
 Feature   min_dist	1.396899
END_CFG

BEGIN_CFG
 Size
    18
 Supercell
         2.459512      0.000000      0.000000
         0.000000     30.000000      0.000000
         0.000000      0.000000     14.889240
 AtomData:  id type       cartes_x      cartes_y      cartes_z           fx          fy          fz
             1    0       2.433433     14.981892     14.881684     0.000010   -0.000013    0.000016
             2    0       1.203677     14.508966      0.514163    -0.000012    0.000019   -0.000017
             3    0       1.203677     13.556679      1.584913     0.000009   -0.000006    0.000020
             4    0       2.433434     13.115737      2.109506    -0.000012   -0.000004   -0.000016
             5    0       2.433433     13.115754      4.265458    -0.000000   -0.000006    0.000061
             6    0       1.203677     13.556699      4.790050     0.000008   -0.000081   -0.000009
             7    0       1.203678     14.508970      5.860815     0.000012    0.000061    0.000049
             8    0       2.433434     14.981889      6.382543    -0.000002    0.000025   -0.000023
             9    0       2.433436     15.941531      7.437070    -0.000028    0.000005   -0.000002
            10    0       1.203680     16.414456      7.958792     0.000012    0.000014    0.000010
            11    0       1.203680     17.366743      9.029548    -0.000008   -0.000020    0.000029
            12    0       2.433436     17.807688      9.554141    -0.000000   -0.000021   -0.000021
            13    0       2.433433     17.807701     11.710108    -0.000001   -0.000015   -0.000041
            14    0       1.203677     17.366759     12.234702     0.000008   -0.000014   -0.000040
            15    0       1.203677     16.414469     13.305452     0.000019    0.000020   -0.000023
            16    0       2.433433     15.941542     13.827169    -0.000019    0.000019   -0.000002
            17    1       2.433432     12.227324      3.187488     0.000005   -0.000008    0.000014
            18    1       2.433435     18.696108     10.632119    -0.000002    0.000024   -0.000004
 Energy
      -3358.493469517856
 PlusStress:  xx          yy          zz          yz          xz          xy
         2.08223     0.00010     1.10500    -0.00039    -0.00003    -0.00003
 Feature   EFS_by	MultiMTP93
 Feature   MV_grade	0.517620
 Feature   from	relaxation_OK
 Feature   min_dist	1.396898
END_CFG

BEGIN_CFG
 Size
    18
 Supercell
         2.459512      0.000000      0.000000
         0.000000     30.000000      0.000000
         0.000000      0.000000     14.889240
 AtomData:  id type       cartes_x      cartes_y      cartes_z           fx          fy          fz
             1    0       2.453416     15.007471     14.880336     0.000020    0.000013   -0.000007
             2    0       1.223660     14.534547      0.512818     0.000019    0.000008    0.000004
             3    0       1.223662     13.582263      1.583574     0.000029   -0.000008   -0.000001
             4    0       2.453420     13.141319      2.108166     0.000015   -0.000000   -0.000006
             5    0       2.453443     13.141319      4.264124    -0.000020   -0.000002   -0.000010
             6    0       1.223688     13.582263      4.788715    -0.000016    0.000001    0.000006
             7    0       1.223690     14.534549      5.859469    -0.000025   -0.000012    0.000001
             8    0       2.453446     15.007472      6.381192    -0.000024   -0.000006    0.000001
             9    0       2.453443     15.967114      7.435717     0.000026    0.000017    0.000001
            10    0       1.223687     16.440038      7.957439    -0.000022   -0.000009   -0.000013
            11    0       1.223685     17.392323      9.028193     0.000002    0.000003    0.000007