BEGIN_CFG
 Size
    18
 SuperCell
         2.4595121467478056   0.0   0.0
         0.0   30.0   0.0
         0.0   0.0   14.420442495724282
 AtomData:  id type	  cartes_x	cartes_y      cartes_z
             1   0       0.1764052       15.0400157        0.0978738
             2   0       1.4538454       14.6980241        0.4172880
             3   0       1.3247649       13.5186690        1.5347255
             4   0       0.0410599       13.0594774        2.2054906
             5   0       0.0761038       13.0572405        4.1645128
             6   0       1.2631235       13.6832127        4.6146264
             7   0       1.2610628       14.4258587        5.4098749
             8   0       0.0653619       15.0864436        6.1059731
             9   0       0.2269755       15.8320269        7.2147971
             10   0       1.2110377       16.6194732        7.8721729
             11   0       1.2452508       17.4814750        8.6664901
             12   0       2.2614325       17.8975993        9.2859194
             13   0       0.1230291       18.0526285       11.2916150
             14   0       1.1995258       17.3388034       11.7033617
             15   0       1.0591291       16.6612728       12.8244299
             16   0       2.4157047       15.8521840       13.4681599
             17   1       2.2981224       12.0463355        3.0005482
             18   1       0.0386902       18.8587735       10.1822528
END_CFG

BEGIN_CFG
 Size
    18
 SuperCell
         2.4595121467478056   0.0   0.0
         0.0   30.0   0.0
         0.0   0.0   14.420442495724282
 AtomData:  id type	  cartes_x	cartes_y      cartes_z
             1   0       0.1624345       14.9388244       14.3676253
             2   0       1.1224592       14.5978090        0.2848619
             3   0       1.4042372       13.4576841        1.5769513
             4   0       2.4345751       13.1912838        1.8540491
             5   0       2.4272704       13.0066676        4.2335034
             6   0       1.1197669       13.5165619        4.5473564
             7   0       1.2339774       14.5695498        5.5551119
             8   0       0.1144724       15.0901591        6.2304391
             9   0       0.0900856       15.9090907        7.1979322
             10   0       1.1361791       16.4394064        7.7782726
             11   0       1.1605900       17.4039834        8.6865514
             12   0       2.3749916       17.8652659        9.2690180
             13   0       2.3477811       17.9558321       11.4963279
             14   0       1.3039605       17.4244752       11.7566006
             15   0       1.1550402       16.6354407       12.8804759
             16   0       2.3958126       15.9965550       13.6004364
             17   1       0.0120159       12.1293298        3.1201119
             18   1       2.4242872       18.7956022       10.2653818
END_CFG

BEGIN_CFG
 Size
    18
 SuperCell
         2.4595121467478056   0.0   0.0
         0.0   30.0   0.0
         0.0   0.0   14.420442495724282
 AtomData:  id type	  cartes_x	cartes_y      cartes_z
             1   0       2.4178364       14.9943733       14.2068229
             2   0       1.3937832       14.3319247        0.4308411
             3   0       1.2800442       13.4092759        1.4392522
             4   0       2.3686114       13.1002184        2.2892840
             5   0       0.0041539       12.9332805        4.1740323
             6   0       1.1701401       13.5318917        4.7526424
             7   0       1.1549690       14.5121708        5.5773630
             8   0       2.4438687       15.0256570        6.0813117
             9   0       2.4256300       15.9538451        7.1464557
             10   0       1.1109948       16.3240735        7.7098875
             11   0       1.2028504       17.6667954        8.5117919
             12   0       0.0112727       17.9694349        9.4062478
             13   0       0.0501857       17.8479691       11.3303487
             14   0       1.2839913       17.4123079       11.9224647
             15   0       1.0429470       16.6393137       13.0221629
             16   0       2.4259444       16.0385976       13.3952079
             17   1       2.3765986       12.0763805        3.1901314
             18   1       2.4214029       18.8722870       10.2928690
END_CFG

BEGIN_CFG
 Size
    18
 SuperCell
         2.4595121467478056   0.0   0.0
         0.0   30.0   0.0
         0.0   0.0   14.420442495724282
 AtomData:  id type	  cartes_x	cartes_y      cartes_z
             1   0       0.1788628       15.0436510        0.0096497
             2   0       1.0434068       14.4835294        0.4795399
             3   0       1.2214819       13.4711047        1.5406656
             4   0       2.4117903       12.9136865        2.1485255
             5   0       0.0881318       13.2160303        4.1251298
             6   0       1.1892883       13.4792688        4.4804945
             7   0       1.3279928       14.4011615        5.5466692
             8   0       2.4389472       15.1486148        6.2038613
             9   0       2.3571336       15.9061642        7.2727457
             10   0       1.2137047       16.3893116        7.7022340
             11   0       1.3042617       17.6412698        8.6308563
             12   0       2.3968705       17.8520139        9.0283761
             13   0       2.3671329       17.8300029       11.4427455
             14   0       1.2165647       17.2813302       11.9100310
             15   0       1.1941290       16.2918811       12.8157301
             16   0       2.4006527       15.8900753       13.3933823
             17   1       2.2346864       12.0408333        3.1914132
             18   1       0.0852798       19.0206727       10.4122551
END_CFG

BEGIN_CFG
 Size
    18
 SuperCell
         2.4595121467478056   0.0   0.0
         0.0   30.0   0.0
         0.0   0.0   14.420442495724282
 AtomData:  id type	  cartes_x	cartes_y      cartes_z
             1   0       0.0050562       15.0499951       14.3208516
             2   0       1.2991159       14.4694381        0.3565581
             3   0       1.1649854       13.5936623        1.5782724
             4   0       2.3447645       13.1069400        2.0512645
             5   0       0.0425072       13.0782983        4.0044448
             6   0       1.2648558       13.4731160        4.7898402
             7   0       1.3020902       14.5158818        5.5668747
             8   0       0.0054433       15.0159893        6.0592948
             9   0       0.2223360       16.0168930        7.3794570
             10   0       1.1184749       16.6297700        7.5891405
             11   0       1.1646335       17.4979039        8.7600693
             12   0       2.2237048       17.8218321        9.3540681
             13   0       0.2087871       18.0238746       11.3027273
             14   0       1.3094073       17.3292789       11.8963555
             15   0       1.0950100       16.4652592       12.8623246
             16   0       0.0802087       15.9471671       13.5106111
             17   1       2.4398376       12.1512624        3.1687550
             18   1       2.2754246       18.9136087       10.3039089
END_CFG

BEGIN_CFG
 Size
    18
 SuperCell
         2.4595121467478056   0.0   0.0
         0.0   30.0   0.0
         0.0   0.0   14.420442495724282
 AtomData:  id type	  cartes_x	cartes_y      cartes_z
             1   0       0.0441227       14.9669130        0.2430771
             2   0       1.2045469       14.5222292        0.6732639
             3   0       1.1388328       13.4746411        1.5638077
             4   0       2.4265252       12.9257965        2.0395756
             5   0       2.4236293       13.1054202        3.9536476
             6   0       1.1597382       13.6489439        4.8208753
             7   0       1.0786381       14.5757530        5.5671130
             8   0       2.3738268       14.9128121        6.1379388
             9   0       0.0996440       16.0487056        7.2161357
             10   0       1.1934250       16.4665241        7.7146440
             11   0       1.3090614       17.3805016        8.7546492
             12   0       2.4494054       17.9271597        9.2952062
             13   0       0.0197660       18.0658753       11.3216601
             14   0       1.3859093       17.4130734       11.7975903
             15   0       1.2398299       16.5017391       12.9023563
             16   0       0.1291963       16.0913978       13.4398549
             17   1       2.4258785       12.0575481        3.2314346
             18   1       0.0221254       18.7787767       10.2313595
END_CFG

BEGIN_CFG
 Size
    18
 SuperCell
         2.4595121467478056   0.0   0.0
         0.0   30.0   0.0
         0.0   0.0   14.420442495724282
 AtomData:  id type	  cartes_x	cartes_y      cartes_z
             1   0       2.4283338       15.0729004        0.0217821
             2   0       1.1398469       14.2625902        0.6063410
             3   0       1.3424624       13.3823954        1.7089765
             4   0       2.4165228       13.3082011        2.1202454
             5   0       2.4259240       13.1688468        4.1312392
             6   0       1.2426712       13.5414175        4.6196294
             7   0       1.2931786       14.5923338        5.7006547
             8   0       0.1812590       14.8643524        6.1338264
             9   0       0.0824654       15.8598203        7.3666702
             10   0       1.3010266       16.4480946        7.7786570
             11   0       1.1710948       17.2954734        8.8409934
             12   0       0.0943099       17.9438346        9.2680888
             13   0       2.2467977       17.8489497       11.2837968
             14   0       1.2531271       17.5821623       11.7934008
             15   0       1.1517409       16.5617562       12.8627214
             16   0       2.3226509       16.0993116       13.3046607
             17   1       2.4033651       11.9642575        3.1259719
             18   1       0.1073681       18.8723035       10.3399528
END_CFG

BEGIN_CFG
 Size
    18
 SuperCell
         2.4595121467478056   0.0   0.0
         0.0   30.0   0.0
         0.0   0.0   14.420442495724282
 AtomData:  id type	  cartes_x	cartes_y      cartes_z
             1   0       0.1690526       14.9534063        0.0032820
             2   0       1.2705077       14.4323759        0.5152224
             3   0       1.2296670       13.3583323        1.6468132
             4   0       0.0600499       12.9825301        2.0429084
             5   0       0.0505299       13.0189374        4.0958515
             6   0       1.0844319       13.5892628        4.6475303
             7   0       1.2572021       14.3586158        5.8302438
             8   0       0.0154336       14.9612860        6.3830969
             9   0       2.4549735       15.8323956        7.1696985
             10   0       1.0009246       16.5711349        7.6835896
             11   0       1.1555007       17.5509058        8.5901611
             12   0       0.0535429       17.7259490        9.2040685
             13   0       2.3390902       18.0785881       11.5069638
             14   0       1.1968147       17.5277321       11.8273648
             15   0       1.2865623       16.3909115       12.7045612
             16   0       2.2792023       16.0157757       13.6151704
             17   1       0.0269412       12.0151490        3.2812967
             18   1       0.0237302       18.9199974       10.3255738
END_CFG

BEGIN_CFG
 Size
    18
 SuperCell
         2.4595121467478056   0.0   0.0
         0.0   30.0   0.0
         0.0   0.0   14.420442495724282
 AtomData:  id type	  cartes_x	cartes_y      cartes_z
             1   0       0.0091205       15.1091283       14.2257455
             2   0       1.0911211       14.2816191        0.7559992
             3   0       1.4025397       13.7542604        1.6245302
             4   0       0.0976421       12.9267303        2.2516996
             5   0       2.3471795       12.9786695        4.0822906
             6   0       1.1505945       13.6197596        4.6120633
             7   0       1.2231900       14.4904046        5.7998607
             8   0       2.3988169       14.9825752        6.2225948
             9   0       2.2949131       15.9291094        7.2637681
             10   0       1.3463701       16.4823636        7.6579537
             11   0       1.3740085       17.4215107        8.7583951
             12   0       0.0181930       17.9260976        9.2161276
             13   0       0.0474518       17.8159314       11.2802567
             14   0       1.1889000       17.3502239       11.8538145
             15   0       1.2441252       16.4737502       12.8598306
             16   0       0.0550850       16.1476665       13.4910203
             17   1       2.1460202       12.1815629        2.9031149
             18   1       2.2816008       18.9226303       10.1652143
END_CFG

BEGIN_CFG
 Size
    18
 SuperCell
         2.4595121467478056   0.0   0.0
         0.0   30.0   0.0
         0.0   0.0   14.420442495724282
 AtomData:  id type	  cartes_x	cartes_y      cartes_z
             1   0       0.0001109       14.9710456       14.3088359
             2   0       1.2284678       14.4734321        0.4669023
             3   0       1.0780230       13.4847176        1.5209794
             4   0       2.3947174       13.1086621        2.2340749
             5   0       0.0296682       13.1158234        4.3024080
             6   0       1.2728330       13.6880777        4.5450701
             7   0       1.2160436       14.6410262        5.7327010
             8   0       0.0031958       15.0918146        6.2182406
             9   0       0.0516367       15.9419396        7.2310989
             10   0       1.2625972       16.4163728        7.5160594
             11   0       1.2214973       17.6891770        8.4880577
             12   0       2.3681842       17.9096591        9.2972160
             13   0       0.1130461       18.0366302       11.4607287
             14   0       1.3686961       17.3780135       11.8397377
             15   0       1.1797658       16.5098372       12.8378138
             16   0       2.3672060       16.1691885       13.3753806
             17   1       2.3956392       12.1500865        2.9690109
             18   1       2.4091716       18.8396624       10.1028890
END_CFG

BEGIN_CFG
 Size
    18
 SuperCell
         2.4595121467478056   0.0   0.0
         0.0   30.0   0.0
         0.0   0.0   14.65707345578527
 AtomData:  id type	  cartes_x	cartes_y      cartes_z
             1   0       0.1764052       15.0400157        0.0978738
             2   0       1.4538454       14.7070868        0.4257391
             3   0       1.3247649       13.5458571        1.5600788
             4   0       0.0410599       13.0957282        2.2392950
             5   0       0.0761038       13.0934913        4.2321216
             6   0       1.2631235       13.7104008        4.6906864
             7   0       1.2610628       14.4349214        5.5028370
             8   0       0.0653619       15.0864436        6.2073864
             9   0       0.2269755       15.8139015        7.3331126
             10   0       1.2110377       16.5922851        7.9989395
             11   0       1.2452508       17.4361615        8.8101589
             12   0       2.2614325       17.8432231        9.4380393
             13   0       0.1230291       17.9982523       11.4775393
             14   0       1.1995258       17.2934899       11.8977371
             15   0       1.0591291       16.6340847       13.0357075
             16   0       2.4157047       15.8340586       13.6878887
             17   1       2.2981224       12.1007117        3.0512548
             18   1       0.0386902       18.7862719       10.3512750
END_CFG

BEGIN_CFG
 Size
    18
 SuperCell
         2.4595121467478056   0.0   0.0
         0.0   30.0   0.0
         0.0   0.0   14.65707345578527
 AtomData:  id type	  cartes_x	cartes_y      cartes_z
             1   0       0.1624345       14.9388244       14.6042563
             2   0       1.1224592       14.6068717        0.2933130
             3   0       1.4042372       13.4848722        1.6023046
             4   0       2.4345751       13.2275346        1.8878536
             5   0       2.4272704       13.0429184        4.3011122
             6   0       1.1197669       13.5437500        4.6234163
             7   0       1.2339774       14.5786125        5.6480741
             8   0       0.1144724       15.0901591        6.3318523
             9   0       0.0900856       15.8909653        7.3162477
             10   0       1.1361791       16.4122183        7.9050392
             11   0       1.1605900       17.3586699        8.8302202
             12   0       2.3749916       17.8108897        9.4211379
             13   0       2.3477811       17.9014559       11.6822522
             14   0       1.3039605       17.3791617       11.9509760
             15   0       1.1550402       16.6082526       13.0917535
             16   0       2.3958126       15.9784296       13.8201652
             17   1       0.0120159       12.1837060        3.1708185
             18   1       2.4242872       18.7231006       10.4344039
END_CFG

BEGIN_CFG
 Size
    18
 SuperCell
         2.4595121467478056   0.0   0.0
         0.0   30.0   0.0
         0.0   0.0   14.65707345578527
 AtomData:  id type	  cartes_x	cartes_y      cartes_z
             1   0       2.4178364       14.9943733       14.4434538
             2   0       1.3937832       14.3409874        0.4392922
             3   0       1.2800442       13.4364640        1.4646055
             4   0       2.3686114       13.1364692        2.3230884
             5   0       0.0041539       12.9695313        4.2416411
             6   0       1.1701401       13.5590798        4.8287023
             7   0       1.1549690       14.5212335        5.6703252
             8   0       2.4438687       15.0256570        6.1827250
             9   0       2.4256300       15.9357197        7.2647712
             10   0       1.1109948       16.2968854        7.8366541
             11   0       1.2028504       17.6214819        8.6554607
             12   0       0.0112727       17.9150587        9.5583678
             13   0       0.0501857       17.7935929       11.5162730
             14   0       1.2839913       17.3669944       12.1168401
             15   0       1.0429470       16.6121256       13.2334405
             16   0       2.4259444       16.0204722       13.6149367
             17   1       2.3765986       12.1307567        3.2408380
             18   1       2.4214029       18.7997854       10.4618911
END_CFG

BEGIN_CFG
 Size
    18
 SuperCell
         2.4595121467478056   0.0   0.0
         0.0   30.0   0.0
         0.0   0.0   14.65707345578527
 AtomData:  id type	  cartes_x	cartes_y      cartes_z
             1   0       0.1788628       15.0436510        0.0096497
             2   0       1.0434068       14.4925921        0.4879910
             3   0       1.2214819       13.4982928        1.5660189
             4   0       2.4117903       12.9499373        2.1823299
             5   0       0.0881318       13.2522811        4.1927386
             6   0       1.1892883       13.5064569        4.5565545
             7   0       1.3279928       14.4102242        5.6396313
             8   0       2.4389472       15.1486148        6.3052745
             9   0       2.3571336       15.8880388        7.3910612
             10   0       1.2137047       16.3621235        7.8290006
             11   0       1.3042617       17.5959563        8.7745251
             12   0       2.3968705       17.7976377        9.1804960
             13   0       2.3671329       17.7756267       11.6286698
             14   0       1.2165647       17.2360167       12.1044065
             15   0       1.1941290       16.2646930       13.0270078
             16   0       2.4006527       15.8719499       13.6131110
             17   1       2.2346864       12.0952095        3.2421198
             18   1       0.0852798       18.9481711       10.5812772
END_CFG

BEGIN_CFG
 Size
    18
 SuperCell
         2.4595121467478056   0.0   0.0
         0.0   30.0   0.0
         0.0   0.0   14.65707345578527
 AtomData:  id type	  cartes_x	cartes_y      cartes_z
             1   0       0.0050562       15.0499951       14.5574826
             2   0       1.2991159       14.4785008        0.3650092
             3   0       1.1649854       13.6208504        1.6036257
             4   0       2.3447645       13.1431908        2.0850689
             5   0       0.0425072       13.1145491        4.0720536
             6   0       1.2648558       13.5003041        4.8659001
             7   0       1.3020902       14.5249445        5.6598368
             8   0       0.0054433       15.0159893        6.1607081
             9   0       0.2223360       15.9987676        7.4977725
             10   0       1.1184749       16.6025819        7.7159071
             11   0       1.1646335       17.4525904        8.9037381
             12   0       2.2237048       17.7674559        9.5061880
             13   0       0.2087871       17.9694984       11.4886517
             14   0       1.3094073       17.2839654       12.0907309
             15   0       1.0950100       16.4380711       13.0736023
             16   0       0.0802087       15.9290417       13.7303399
             17   1       2.4398376       12.2056386        3.2194617
             18   1       2.2754246       18.8411071       10.4729310
END_CFG

BEGIN_CFG
 Size
    18
 SuperCell
         2.4595121467478056   0.0   0.0
         0.0   30.0   0.0
         0.0   0.0   14.65707345578527
 AtomData:  id type	  cartes_x	cartes_y      cartes_z
             1   0       0.0441227       14.9669130        0.2430771
             2   0       1.2045469       14.5312919        0.6817150
             3   0       1.1388328       13.5018292        1.5891610
             4   0       2.4265252       12.9620473        2.0733800
             5   0       2.4236293       13.1416710        4.0212564
             6   0       1.1597382       13.6761320        4.8969353
             7   0       1.0786381       14.5848157        5.6600752
             8   0       2.3738268       14.9128121        6.2393521
             9   0       0.0996440       16.0305802        7.3344512
             10   0       1.1934250       16.4393360        7.8414106
             11   0       1.3090614       17.3351881        8.8983180
             12   0       2.4494054       17.8727835        9.4473261
             13   0       0.0197660       18.0114991       11.5075844
             14   0       1.3859093       17.3677599       11.9919658
             15   0       1.2398299       16.4745510       13.1136340
             16   0       0.1291963       16.0732724       13.6595837
             17   1       2.4258785       12.1119243        3.2821413
             18   1       0.0221254       18.7062751       10.4003817
END_CFG

BEGIN_CFG
 Size
    18
 SuperCell
         2.4595121467478056   0.0   0.0
         0.0   30.0   0.0
         0.0   0.0   14.65707345578527
 AtomData:  id type	  cartes_x	cartes_y      cartes_z
             1   0       2.4283338       15.0729004        0.0217821
             2   0       1.1398469       14.2716529        0.6147921
             3   0       1.3424624       13.4095835        1.7343298
             4   0       2.4165228       13.3444519        2.1540499
             5   0       2.4259240       13.2050976        4.1988481
             6   0       1.2426712       13.5686056        4.6956894
             7   0       1.2931786       14.6013965        5.7936169
             8   0       0.1812590       14.8643524        6.2352397
             9   0       0.0824654       15.8416949        7.4849857
             10   0       1.3010266       16.4209065        7.9054236
             11   0       1.1710948       17.2501599        8.9846622
             12   0       0.0943099       17.8894584        9.4202087
             13   0       2.2467977       17.7945735       11.4697212
             14   0       1.2531271       17.5368488       11.9877762
             15   0       1.1517409       16.5345681       13.0739991
             16   0       2.3226509       16.0811862       13.5243895
             17   1       2.4033651       12.0186337        3.1766786
             18   1       0.1073681       18.7998019       10.5089749
END_CFG

BEGIN_CFG
 Size
    18
 SuperCell
         2.4595121467478056   0.0   0.0
         0.0   30.0   0.0
         0.0   0.0   14.65707345578527
 AtomData:  id type	  cartes_x	cartes_y      cartes_z
             1   0       0.1690526       14.9534063        0.0032820
             2   0       1.2705077       14.4414386        0.5236735
             3   0       1.2296670       13.3855204        1.6721665
             4   0       0.0600499       13.0187809        2.0767128
             5   0       0.0505299       13.0551882        4.1634604
             6   0       1.0844319       13.6164509        4.7235903
             7   0       1.2572021       14.3676785        5.9232060
             8   0       0.0154336       14.9612860        6.4845101
             9   0       2.4549735       15.8142702        7.2880139
             10   0       1.0009246       16.5439468        7.8103562
             11   0       1.1555007       17.5055923        8.7338299
             12   0       0.0535429       17.6715728        9.3561884
             13   0       2.3390902       18.0242118       11.6928881
             14   0       1.1968147       17.4824186       12.0217403
             15   0       1.2865623       16.3637234       12.9158388
             16   0       2.2792023       15.9976503       13.8348991
             17   1       0.0269412       12.0695253        3.3320033
             18   1       0.0237302       18.8474958       10.4945960
END_CFG

BEGIN_CFG
 Size
    18
 SuperCell
         2.4595121467478056   0.0   0.0
         0.0   30.0   0.0
         0.0   0.0   14.65707345578527
 AtomData:  id type	  cartes_x	cartes_y      cartes_z
             1   0       0.0091205       15.1091283       14.4623764
             2   0       1.0911211       14.2906818        0.7644503
             3   0       1.4025397       13.7814485        1.6498835
             4   0       0.0976421       12.9629811        2.2855040
             5   0       2.3471795       13.0149203        4.1498994
             6   0       1.1505945       13.6469477        4.6881233
             7   0       1.2231900       14.4994673        5.8928229
             8   0       2.3988169       14.9825752        6.3240081
             9   0       2.2949131       15.9109840        7.3820836
             10   0       1.3463701       16.4551755        7.7847202
             11   0       1.3740085       17.3761972        8.9020639
             12   0       0.0181930       17.8717214        9.3682475
             13   0       0.0474518       17.7615552       11.4661811
             14   0       1.1889000       17.3049104       12.0481899
             15   0       1.2441252       16.4465621       13.0711082
             16   0       0.0550850       16.1295411       13.7107490
             17   1       2.1460202       12.2359391        2.9538215
             18   1       2.2816008       18.8501287       10.3342364
END_CFG

BEGIN_CFG
 Size
    18
 SuperCell
         2.4595121467478056   0.0   0.0
         0.0   30.0   0.0
         0.0   0.0   14.65707345578527
 AtomData:  id type	  cartes_x	cartes_y      cartes_z
             1   0       0.0001109       14.9710456       14.5454668
             2   0       1.2284678       14.4824948        0.4753534
             3   0       1.0780230       13.5119057        1.5463327
             4   0       2.3947174       13.1449129        2.2678794
             5   0       0.0296682       13.1520742        4.3700168
             6   0       1.2728330       13.7152658        4.6211301
             7   0       1.2160436       14.6500889        5.8256631
             8   0       0.0031958       15.0918146        6.3196539
             9   0       0.0516367       15.9238141        7.3494144
             10   0       1.2625972       16.3891847        7.6428260
             11   0       1.2214973       17.6438635        8.6317265
             12   0       2.3681842       17.8552828        9.4493359
             13   0       0.1130461       17.9822540       11.6466530
             14   0       1.3686961       17.3327000       12.0341132
             15   0       1.1797658       16.4826491       13.0490914
             16   0       2.3672060       16.1510631       13.5951094
             17   1       2.3956392       12.2044627        3.0197176
             18   1       2.4091716       18.7671608       10.2719111
END_CFG

BEGIN_CFG
 Size
    18
 SuperCell
         2.4595121467478056   0.0   0.0
         0.0   30.0   0.0
         0.0   0.0   14.889239729285363
 AtomData:  id type	  cartes_x	cartes_y      cartes_z
             1   0       0.1764052       15.0400157        0.0978738
             2   0       1.4538454       14.7162956        0.4340308
             3   0       1.3247649       13.5734836        1.5849538
             4   0       0.0410599       13.1325634        2.2724616
             5   0       0.0761038       13.1303266        4.2984548
             6   0       1.2631235       13.7380272        4.7653112
             7   0       1.2610628       14.4441302        5.5940452
             8   0       0.0653619       15.0864436        6.3068862
             9   0       0.2269755       15.7954839        7.4491957
             10   0       1.2110377       16.5646586        8.1233143