BEGIN_CFG
 Size
    18
 SuperCell
         2.4595121467478056   0.0   0.0
         0.0   18.0   0.0
         0.0   0.0   14.057282809988568
 AtomData:  id type	  cartes_x	cartes_y      cartes_z
             1   0       0.0000000        9.0000000        0.0000000
             2   0       1.2297561        8.4979542        0.5020458
             3   0       1.2297561        7.4938626        1.5061374
             4   0       0.0000000        6.9918167        2.0081833
             5   0       0.0000000        6.9918167        4.0163665
             6   0       1.2297561        7.4938626        4.5184123
             7   0       1.2297561        8.4979542        5.5225040
             8   0       0.0000000        9.0000000        6.0245498
             9   0       0.0000000       10.0040916        7.0286414
             10   0       1.2297561       10.5061374        7.5306872
             11   0       1.2297561       11.5102291        8.5347788
             12   0       0.0000000       12.0122749        9.0368247
             13   0       0.0000000       12.0122749       11.0450079
             14   0       1.2297561       11.5102291       11.5470537
             15   0       1.2297561       10.5061374       12.5511454
             16   0       0.0000000       10.0040916       13.0531912
             17   1       0.0000000        5.9877251        3.0122749
             18   1       0.0000000       13.0163665       10.0409163
END_CFG

BEGIN_CFG
 Size
    18
 SuperCell
         2.4595121467478056   0.0   0.0
         0.0   18.0   0.0
         0.0   0.0   14.300475230732388
 AtomData:  id type	  cartes_x	cartes_y      cartes_z
             1   0       0.0000000        9.0000000        0.0000000
             2   0       1.2297561        8.5067926        0.5107313
             3   0       1.2297561        7.5203777        1.5321938
             4   0       0.0000000        7.0271702        2.0429250
             5   0       0.0000000        7.0271702        4.0858501
             6   0       1.2297561        7.5203777        4.5965813
             7   0       1.2297561        8.5067926        5.6180438
             8   0       0.0000000        9.0000000        6.1287751
             9   0       0.0000000        9.9864149        7.1502376
             10   0       1.2297561       10.4796223        7.6609689
             11   0       1.2297561       11.4660372        8.6824314
             12   0       0.0000000       11.9592447        9.1931626
             13   0       0.0000000       11.9592447       11.2360877
             14   0       1.2297561       11.4660372       11.7468189
             15   0       1.2297561       10.4796223       12.7682815
             16   0       0.0000000        9.9864149       13.2790127
             17   1       0.0000000        6.0407553        3.0643875
             18   1       0.0000000       12.9456595       10.2146252
END_CFG

BEGIN_CFG
 Size
    18
 SuperCell
         2.4595121467478056   0.0   0.0
         0.0   18.0   0.0
         0.0   0.0   14.539311588189111
 AtomData:  id type	  cartes_x	cartes_y      cartes_z
             1   0       0.0000000        9.0000000        0.0000000
             2   0       1.2297561        8.5157812        0.5192611
             3   0       1.2297561        7.5473435        1.5577834
             4   0       0.0000000        7.0631247        2.0770445
             5   0       0.0000000        7.0631247        4.1540890
             6   0       1.2297561        7.5473435        4.6733502
             7   0       1.2297561        8.5157812        5.7118724
             8   0       0.0000000        9.0000000        6.2311335
             9   0       0.0000000        9.9684377        7.2696558
             10   0       1.2297561       10.4526565        7.7889169
             11   0       1.2297561       11.4210942        8.8274392
             12   0       0.0000000       11.9053130        9.3467003
             13   0       0.0000000       11.9053130       11.4237448
             14   0       1.2297561       11.4210942       11.9430059
             15   0       1.2297561       10.4526565       12.9815282
             16   0       0.0000000        9.9684377       13.5007893
             17   1       0.0000000        6.0946870        3.1155668
             18   1       0.0000000       12.8737507       10.3852226
END_CFG

BEGIN_CFG
 Size
    18
 SuperCell
         2.4595121467478056   0.0   0.0
         0.0   18.0   0.0
         0.0   0.0   14.7737191304906
 AtomData:  id type	  cartes_x	cartes_y      cartes_z
             1   0       0.0000000        9.0000000        0.0000000
             2   0       1.2297561        8.5249173        0.5276328
             3   0       1.2297561        7.5747518        1.5828985
             4   0       0.0000000        7.0996691        2.1105313
             5   0       0.0000000        7.0996691        4.2210626
             6   0       1.2297561        7.5747518        4.7486954
             7   0       1.2297561        8.5249173        5.8039611
             8   0       0.0000000        9.0000000        6.3315939
             9   0       0.0000000        9.9501655        7.3868596
             10   0       1.2297561       10.4252482        7.9144924
             11   0       1.2297561       11.3754137        8.9697580
             12   0       0.0000000       11.8504964        9.4973909
             13   0       0.0000000       11.8504964       11.6079222
             14   0       1.2297561       11.3754137       12.1355550
             15   0       1.2297561       10.4252482       13.1908207
             16   0       0.0000000        9.9501655       13.7184535
             17   1       0.0000000        6.1495036        3.1657970
             18   1       0.0000000       12.8006618       10.5526565
END_CFG

BEGIN_CFG
 Size
    18
 SuperCell
         2.4595121467478056   0.0   0.0
         0.0   18.0   0.0
         0.0   0.0   15.00362645482871
 AtomData:  id type	  cartes_x	cartes_y      cartes_z
             1   0       0.0000000        9.0000000        0.0000000
             2   0       1.2297561        8.5341981        0.5358438
             3   0       1.2297561        7.6025943        1.6075314
             4   0       0.0000000        7.1367924        2.1433752
             5   0       0.0000000        7.1367924        4.2867504
             6   0       1.2297561        7.6025943        4.8225942
             7   0       1.2297561        8.5341981        5.8942818
             8   0       0.0000000        9.0000000        6.4301256
             9   0       0.0000000        9.9316038        7.5018132
             10   0       1.2297561       10.3974057        8.0376570
             11   0       1.2297561       11.3290096        9.1093446
             12   0       0.0000000       11.7948115        9.6451884
             13   0       0.0000000       11.7948115       11.7885636
             14   0       1.2297561       11.3290096       12.3244074
             15   0       1.2297561       10.3974057       13.3960950
             16   0       0.0000000        9.9316038       13.9319389
             17   1       0.0000000        6.2051885        3.2150628
             18   1       0.0000000       12.7264153       10.7168760
END_CFG

BEGIN_CFG
 Size
    18
 SuperCell
         2.4595121467478056   0.0   0.0
         0.0   18.0   0.0
         0.0   0.0   15.228963529205288
 AtomData:  id type	  cartes_x	cartes_y      cartes_z
             1   0       0.0000000        9.0000000        0.0000000
             2   0       1.2297561        8.5436208        0.5438916
             3   0       1.2297561        7.6308624        1.6316747
             4   0       0.0000000        7.1744832        2.1755662
             5   0       0.0000000        7.1744832        4.3511324
             6   0       1.2297561        7.6308624        4.8950240
             7   0       1.2297561        8.5436208        5.9828071
             8   0       0.0000000        9.0000000        6.5266987
             9   0       0.0000000        9.9127584        7.6144818
             10   0       1.2297561       10.3691376        8.1583733
             11   0       1.2297561       11.2818960        9.2461564
             12   0       0.0000000       11.7382752        9.7900480
             13   0       0.0000000       11.7382752       11.9656142
             14   0       1.2297561       11.2818960       12.5095058
             15   0       1.2297561       10.3691376       13.5972889
             16   0       0.0000000        9.9127584       14.1411804
             17   1       0.0000000        6.2617248        3.2633493
             18   1       0.0000000       12.6510336       10.8778311
END_CFG

BEGIN_CFG
 Size
    18
 SuperCell
         2.4595121467478056   0.0   0.0
         0.0   18.0   0.0
         0.0   0.0   15.44966171376458
 AtomData:  id type	  cartes_x	cartes_y      cartes_z
             1   0       0.0000000        9.0000000        0.0000000
             2   0       1.2297561        8.5531825        0.5517736
             3   0       1.2297561        7.6595476        1.6553209
             4   0       0.0000000        7.2127301        2.2070945
             5   0       0.0000000        7.2127301        4.4141891
             6   0       1.2297561        7.6595476        4.9659627
             7   0       1.2297561        8.5531825        6.0695100
             8   0       0.0000000        9.0000000        6.6212836
             9   0       0.0000000        9.8936350        7.7248309
             10   0       1.2297561       10.3404524        8.2766045
             11   0       1.2297561       11.2340874        9.3801518
             12   0       0.0000000       11.6809049        9.9319254
             13   0       0.0000000       11.6809049       12.1390199
             14   0       1.2297561       11.2340874       12.6907936
             15   0       1.2297561       10.3404524       13.7943408
             16   0       0.0000000        9.8936350       14.3461144
             17   1       0.0000000        6.3190951        3.3106418
             18   1       0.0000000       12.5745398       11.0354727
END_CFG

BEGIN_CFG
 Size
    18
 SuperCell
         2.4595121467478056   0.0   0.0
         0.0   18.0   0.0
         0.0   0.0   15.665653781701634
 AtomData:  id type	  cartes_x	cartes_y      cartes_z
             1   0       0.0000000        9.0000000        0.0000000
             2   0       1.2297561        8.5628804        0.5594876
             3   0       1.2297561        7.6886411        1.6784629
             4   0       0.0000000        7.2515214        2.2379505
             5   0       0.0000000        7.2515214        4.4759011
             6   0       1.2297561        7.6886411        5.0353887
             7   0       1.2297561        8.5628804        6.1543640
             8   0       0.0000000        9.0000000        6.7138516
             9   0       0.0000000        9.8742393        7.8328269
             10   0       1.2297561       10.3113589        8.3923145
             11   0       1.2297561       11.1855982        9.5112898
             12   0       0.0000000       11.6227179       10.0707774
             13   0       0.0000000       11.6227179       12.3087280
             14   0       1.2297561       11.1855982       12.8682156
             15   0       1.2297561       10.3113589       13.9871909
             16   0       0.0000000        9.8742393       14.5466785
             17   1       0.0000000        6.3772821        3.3569258
             18   1       0.0000000       12.4969572       11.1897527
END_CFG

BEGIN_CFG
 Size
    18
 SuperCell
         2.4595121467478056   0.0   0.0
         0.0   18.0   0.0
         0.0   0.0   15.876873939740184
 AtomData:  id type	  cartes_x	cartes_y      cartes_z
             1   0       0.0000000        9.0000000        0.0000000
             2   0       1.2297561        8.5727113        0.5670312
             3   0       1.2297561        7.7181340        1.7010936
             4   0       0.0000000        7.2908453        2.2681248
             5   0       0.0000000        7.2908453        4.5362497
             6   0       1.2297561        7.7181340        5.1032809
             7   0       1.2297561        8.5727113        6.2373433
             8   0       0.0000000        9.0000000        6.8043745
             9   0       0.0000000        9.8545773        7.9384370
             10   0       1.2297561       10.2818660        8.5054682
             11   0       1.2297561       11.1364433        9.6395306
             12   0       0.0000000       11.5637320       10.2065618
             13   0       0.0000000       11.5637320       12.4746867
             14   0       1.2297561       11.1364433       13.0417179
             15   0       1.2297561       10.2818660       14.1757803
             16   0       0.0000000        9.8545773       14.7428115
             17   1       0.0000000        6.4362680        3.4021873
             18   1       0.0000000       12.4183093       11.3406242
END_CFG

BEGIN_CFG
 Size
    18
 SuperCell
         2.4595121467478056   0.0   0.0
         0.0   18.0   0.0
         0.0   0.0   16.083257848173957
 AtomData:  id type	  cartes_x	cartes_y      cartes_z
             1   0       0.0000000        9.0000000        0.0000000
             2   0       1.2297561        8.5826725        0.5744021
             3   0       1.2297561        7.7480174        1.7232062
             4   0       0.0000000        7.3306899        2.2976083
             5   0       0.0000000        7.3306899        4.5952165
             6   0       1.2297561        7.7480174        5.1696186
             7   0       1.2297561        8.5826725        6.3184227
             8   0       0.0000000        9.0000000        6.8928248
             9   0       0.0000000        9.8346551        8.0416289
             10   0       1.2297561       10.2519826        8.6160310
             11   0       1.2297561       11.0866376        9.7648351
             12   0       0.0000000       11.5039652       10.3392372
             13   0       0.0000000       11.5039652       12.6368455
             14   0       1.2297561       11.0866376       13.2112475
             15   0       1.2297561       10.2519826       14.3600517
             16   0       0.0000000        9.8346551       14.9344537
             17   1       0.0000000        6.4960348        3.4464124
             18   1       0.0000000       12.3386202       11.4880413
END_CFG

BEGIN_CFG
 Size
    18
 SuperCell
         2.4595121467478056   0.0   0.0
         0.0   18.0   0.0
         0.0   0.0   16.284742640465158
 AtomData:  id type	  cartes_x	cartes_y      cartes_z
             1   0       0.0000000        9.0000000        0.0000000
             2   0       1.2297561        8.5927607        0.5815980
             3   0       1.2297561        7.7782822        1.7447939
             4   0       0.0000000        7.3710429        2.3263918
             5   0       0.0000000        7.3710429        4.6527836
             6   0       1.2297561        7.7782822        5.2343816
             7   0       1.2297561        8.5927607        6.3975775
             8   0       0.0000000        9.0000000        6.9791754
             9   0       0.0000000        9.8144785        8.1423713
             10   0       1.2297561       10.2217178        8.7239693
             11   0       1.2297561       11.0361963        9.8871652
             12   0       0.0000000       11.4434356       10.4687631
             13   0       0.0000000       11.4434356       12.7951549
             14   0       1.2297561       11.0361963       13.3767529
             15   0       1.2297561       10.2217178       14.5399488
             16   0       0.0000000        9.8144785       15.1215467
             17   1       0.0000000        6.5565644        3.4895877
             18   1       0.0000000       12.2579142       11.6319590
END_CFG

BEGIN_CFG
 Size
    18
 SuperCell
         2.4595121467478056   0.0   0.0
         0.0   18.0   0.0
         0.0   0.0   16.48126694239423
 AtomData:  id type	  cartes_x	cartes_y      cartes_z
             1   0       0.0000000        9.0000000        0.0000000
             2   0       1.2297561        8.6029730        0.5886167
             3   0       1.2297561        7.8089191        1.7658500
             4   0       0.0000000        7.4118922        2.3544667
             5   0       0.0000000        7.4118922        4.7089334
             6   0       1.2297561        7.8089191        5.2975501
             7   0       1.2297561        8.6029730        6.4747834
             8   0       0.0000000        9.0000000        7.0634001
             9   0       0.0000000        9.7940539        8.2406335
             10   0       1.2297561       10.1910809        8.8292501
             11   0       1.2297561       10.9851348       10.0064835
             12   0       0.0000000       11.3821618       10.5951002
             13   0       0.0000000       11.3821618       12.9495669
             14   0       1.2297561       10.9851348       13.5381836
             15   0       1.2297561       10.1910809       14.7154169
             16   0       0.0000000        9.7940539       15.3040336
             17   1       0.0000000        6.6178382        3.5317001
             18   1       0.0000000       12.1762157       11.7723335
END_CFG

BEGIN_CFG
 Size
    18
 SuperCell
         2.4595121467478056   0.0   0.0
         0.0   18.0   0.0
         0.0   0.0   16.672770890755032
 AtomData:  id type	  cartes_x	cartes_y      cartes_z
             1   0       0.0000000        9.0000000        0.0000000
             2   0       1.2297561        8.6133063        0.5954561
             3   0       1.2297561        7.8399189        1.7863683
             4   0       0.0000000        7.4532251        2.3818244
             5   0       0.0000000        7.4532251        4.7636488
             6   0       1.2297561        7.8399189        5.3591049
             7   0       1.2297561        8.6133063        6.5500171
             8   0       0.0000000        9.0000000        7.1454732
             9   0       0.0000000        9.7733874        8.3363854
             10   0       1.2297561       10.1600811        8.9318415
             11   0       1.2297561       10.9334686       10.1227538
             12   0       0.0000000       11.3201623       10.7182099
             13   0       0.0000000       11.3201623       13.1000343
             14   0       1.2297561       10.9334686       13.6954904
             15   0       1.2297561       10.1600811       14.8864026
             16   0       0.0000000        9.7733874       15.4818587
             17   1       0.0000000        6.6798377        3.5727366
             18   1       0.0000000       12.0935497       11.9091221
END_CFG

BEGIN_CFG
 Size
    18
 SuperCell
         2.4595121467478056   0.0   0.0
         0.0   18.0   0.0
         0.0   0.0   16.85919615158975
 AtomData:  id type	  cartes_x	cartes_y      cartes_z
             1   0       0.0000000        9.0000000        0.0000000
             2   0       1.2297561        8.6237573        0.6021141
             3   0       1.2297561        7.8712720        1.8063424
             4   0       0.0000000        7.4950293        2.4084566
             5   0       0.0000000        7.4950293        4.8169132
             6   0       1.2297561        7.8712720        5.4190273
             7   0       1.2297561        8.6237573        6.6232556
             8   0       0.0000000        9.0000000        7.2253698
             9   0       0.0000000        9.7524854        8.4295981
             10   0       1.2297561       10.1287280        9.0317122
             11   0       1.2297561       10.8812134       10.2359405
             12   0       0.0000000       11.2574561       10.8380547
             13   0       0.0000000       11.2574561       13.2465113
             14   0       1.2297561       10.8812134       13.8486254
             15   0       1.2297561       10.1287280       15.0528537
             16   0       0.0000000        9.7524854       15.6549679
             17   1       0.0000000        6.7425439        3.6126849
             18   1       0.0000000       12.0099414       12.0422830
END_CFG

BEGIN_CFG
 Size
    18
 SuperCell
         2.4595121467478056   0.0   0.0
         0.0   18.0   0.0
         0.0   0.0   17.040485937957996
 AtomData:  id type	  cartes_x	cartes_y      cartes_z
             1   0       0.0000000        9.0000000        0.0000000
             2   0       1.2297561        8.6343230        0.6085888
             3   0       1.2297561        7.9029689        1.8257664
             4   0       0.0000000        7.5372919        2.4343551
             5   0       0.0000000        7.5372919        4.8687103
             6   0       1.2297561        7.9029689        5.4772991
             7   0       1.2297561        8.6343230        6.6944766
             8   0       0.0000000        9.0000000        7.3030654
             9   0       0.0000000        9.7313541        8.5202430
             10   0       1.2297561       10.0970311        9.1288318
             11   0       1.2297561       10.8283852       10.3460093
             12   0       0.0000000       11.1940622       10.9545981
             13   0       0.0000000       11.1940622       13.3889532
             14   0       1.2297561       10.8283852       13.9975420
             15   0       1.2297561       10.0970311       15.2147196
             16   0       0.0000000        9.7313541       15.8233084
             17   1       0.0000000        6.8059378        3.6515327
             18   1       0.0000000       11.9254163       12.1717757
END_CFG

BEGIN_CFG
 Size
    18
 SuperCell
         2.4595121467478056   0.0   0.0
         0.0   18.0   0.0
         0.0   0.0   17.216585027234643
 AtomData:  id type	  cartes_x	cartes_y      cartes_z
             1   0       0.0000000        9.0000000        0.0000000
             2   0       1.2297561        8.6450000        0.6148780
             3   0       1.2297561        7.9350000        1.8446341
             4   0       0.0000000        7.5800000        2.4595121
             5   0       0.0000000        7.5800000        4.9190243
             6   0       1.2297561        7.9350000        5.5339023
             7   0       1.2297561        8.6450000        6.7636584
             8   0       0.0000000        9.0000000        7.3785364
             9   0       0.0000000        9.7100000        8.6082925
             10   0       1.2297561       10.0650000        9.2231706
             11   0       1.2297561       10.7750000       10.4529266
             12   0       0.0000000       11.1300000       11.0678047
             13   0       0.0000000       11.1300000       13.5273168
             14   0       1.2297561       10.7750000       14.1421948
             15   0       1.2297561       10.0650000       15.3719509
             16   0       0.0000000        9.7100000       15.9868290
             17   1       0.0000000        6.8700000        3.6892682
             18   1       0.0000000       11.8400000       12.2975607
END_CFG

BEGIN_CFG
 Size
    18
 SuperCell
         2.4595121467478056   0.0   0.0
         0.0   18.0   0.0
         0.0   0.0   17.38743977793119
 AtomData:  id type	  cartes_x	cartes_y      cartes_z
             1   0       0.0000000        9.0000000        0.0000000
             2   0       1.2297561        8.6557852        0.6209800
             3   0       1.2297561        7.9673555        1.8629400
             4   0       0.0000000        7.6231407        2.4839200
             5   0       0.0000000        7.6231407        4.9678399
             6   0       1.2297561        7.9673555        5.5888199
             7   0       1.2297561        8.6557852        6.8307799
             8   0       0.0000000        9.0000000        7.4517599
             9   0       0.0000000        9.6884297        8.6937199
             10   0       1.2297561       10.0326445        9.3146999
             11   0       1.2297561       10.7210742       10.5566599
             12   0       0.0000000       11.0652890       11.1776399
             13   0       0.0000000       11.0652890       13.6615598
             14   0       1.2297561       10.7210742       14.2825398
             15   0       1.2297561       10.0326445       15.5244998
             16   0       0.0000000        9.6884297       16.1454798
             17   1       0.0000000        6.9347110        3.7258800
             18   1       0.0000000       11.7537186       12.4195998
END_CFG

BEGIN_CFG
 Size
    18
 SuperCell
         2.4595121467478056   0.0   0.0
         0.0   18.0   0.0
         0.0   0.0   17.55299814603547
 AtomData:  id type	  cartes_x	cartes_y      cartes_z
             1   0       0.0000000        9.0000000        0.0000000
             2   0       1.2297561        8.6666752        0.6268928
             3   0       1.2297561        8.0000256        1.8806784
             4   0       0.0000000        7.6667008        2.5075712
             5   0       0.0000000        7.6667008        5.0151423
             6   0       1.2297561        8.0000256        5.6420351
             7   0       1.2297561        8.6666752        6.8958207
             8   0       0.0000000        9.0000000        7.5227135
             9   0       0.0000000        9.6666496        8.7764991
             10   0       1.2297561        9.9999744        9.4033919
             11   0       1.2297561       10.6666240       10.6571774
             12   0       0.0000000       10.9999489       11.2840702
             13   0       0.0000000       10.9999489       13.7916414
             14   0       1.2297561       10.6666240       14.4185342
             15   0       1.2297561        9.9999744       15.6723198
             16   0       0.0000000        9.6666496       16.2992126
             17   1       0.0000000        7.0000511        3.7613567
             18   1       0.0000000       11.6665985       12.5378558
END_CFG

BEGIN_CFG
 Size
    18
 SuperCell
         2.4595121467478056   0.0   0.0
         0.0   18.0   0.0
         0.0   0.0   17.713209700864756
 AtomData:  id type	  cartes_x	cartes_y      cartes_z
             1   0       0.0000000        9.0000000        0.0000000
             2   0       1.2297561        8.6776667        0.6326146
             3   0       1.2297561        8.0330002        1.8978439
             4   0       0.0000000        7.7106670        2.5304585
             5   0       0.0000000        7.7106670        5.0609171
             6   0       1.2297561        8.0330002        5.6935317
             7   0       1.2297561        8.6776667        6.9587610
             8   0       0.0000000        9.0000000        7.5913756
             9   0       0.0000000        9.6446665        8.8566049
             10   0       1.2297561        9.9669998        9.4892195
             11   0       1.2297561       10.6116663       10.7544487
             12   0       0.0000000       10.9339995       11.3870634
             13   0       0.0000000       10.9339995       13.9175219
             14   0       1.2297561       10.6116663       14.5501365
             15   0       1.2297561        9.9669998       15.8153658
             16   0       0.0000000        9.6446665       16.4479804
             17   1       0.0000000        7.0660005        3.7956878
             18   1       0.0000000       11.5786660       12.6522926
END_CFG

BEGIN_CFG
 Size
    18
 SuperCell
         2.4595121467478056   0.0   0.0
         0.0   18.0   0.0
         0.0   0.0   17.868025640427444
 AtomData:  id type	  cartes_x	cartes_y      cartes_z
             1   0       0.0000000        9.0000000        0.0000000
             2   0       1.2297561        8.6887565        0.6381438
             3   0       1.2297561        8.0662695        1.9144313
             4   0       0.0000000        7.7550259        2.5525751
             5   0       0.0000000        7.7550259        5.1051502
             6   0       1.2297561        8.0662695        5.7432940
             7   0       1.2297561        8.6887565        7.0195815
             8   0       0.0000000        9.0000000        7.6577253
             9   0       0.0000000        9.6224870        8.9340128
             10   0       1.2297561        9.9337305        9.5721566
             11   0       1.2297561       10.5562176       10.8484441
             12   0       0.0000000       10.8674611       11.4865879
             13   0       0.0000000       10.8674611       14.0391630
             14   0       1.2297561       10.5562176       14.6773068
             15   0       1.2297561        9.9337305       15.9535943
             16   0       0.0000000        9.6224870       16.5917381
             17   1       0.0000000        7.1325389        3.8288626
             18   1       0.0000000       11.4899481       12.7628755
END_CFG

BEGIN_CFG
 Size
    18
 SuperCell
         2.4595121467478056   0.0   0.0
         0.0   18.0   0.0
         0.0   0.0   18.017398806288604
 AtomData:  id type	  cartes_x	cartes_y      cartes_z
             1   0       0.0000000        9.0000000        0.0000000
             2   0       1.2297561        8.6999410        0.6434785
             3   0       1.2297561        8.0998231        1.9304356
             4   0       0.0000000        7.7997641        2.5739141
             5   0       0.0000000        7.7997641        5.1478282
             6   0       1.2297561        8.0998231        5.7913068
             7   0       1.2297561        8.6999410        7.0782638
             8   0       0.0000000        9.0000000        7.7217423
             9   0       0.0000000        9.6001179        9.0086994
             10   0       1.2297561        9.9001769        9.6521779