BEGIN_CFG
 Size
    18
 SuperCell
         2.4595098289855892   0.0   0.0
         0.0   17.999998928235733   0.0
         0.0   0.0   14.057298913449186
 AtomData:  id type	  cartes_x	cartes_y      cartes_z           fx          fy          fz
             1   0       0.0000000        9.0000000        0.0000000          0.0000000       -0.0543783       -0.0161476
             2   0       1.2297600        8.4758844        0.4682827          0.0000000        0.0225067        0.0017034
             3   0       1.2297600        7.4425162        1.4578632          0.0000000        0.0068147        0.0007834
             4   0       0.0000000        6.9763856        1.9592674          0.0000000       -0.0020103       -0.0032434
             5   0       0.0000000        6.9626132        4.0722275          0.0000000       -0.0098147       -0.0022294
             6   0       1.2297600        7.4222925        4.5791966          0.0000000        0.0186238        0.0200428
             7   0       1.2297600        8.4466534        5.5788877          0.0000000       -0.0064139       -0.0007351
             8   0       0.0000000        8.9674578        6.0505255          0.0000000       -0.0075174       -0.0018324
             9   0       0.0000000       10.0341154        6.9997776          0.0000000        0.0087317        0.0060678
             10   0       1.2297600       10.5548264        7.4717307          0.0000000       -0.0098062       -0.0144151
             11   0       1.2297600       11.5788707        8.4709636          0.0000000       -0.0035047        0.0107542
             12   0       0.0000000       12.0395415        8.9775618          0.0000000       -0.0128211        0.0071276
             13   0       0.0000000       12.0404497       11.0980349          0.0000000        0.0134145        0.0080609
             14   0       1.2297600       11.5837983       11.6085869          0.0000000        0.0128509       -0.0007459
             15   0       1.2297600       10.5737319       12.6225407          0.0000000        0.0101489       -0.0160043
             16   0       0.0000000       10.0599392       13.1012831          0.0000000        0.0069181       -0.0093663
             17   1       0.0000000        6.0549565        3.0096132          0.0000000        0.0050083        0.0045624
             18   1       0.0000000       12.9497784       10.0371042          0.0000000        0.0012485        0.0056168
 Energy
         -3358.527391691483
 PlusStress:  xx          yy          zz          yz          xz          xy
              0.0092357       -0.0001644        0.0022330        0.0000119        0.0000000        0.0000000
END_CFG

BEGIN_CFG
 Size
    18
 SuperCell
         2.4595098289855892   0.0   0.0
         0.0   17.999998928235733   0.0
         0.0   0.0   14.30050016435894
 AtomData:  id type	  cartes_x	cartes_y      cartes_z           fx          fy          fz
             1   0       0.0000000        9.0000000        0.0000000          0.0000000       -0.0405566        0.0085685
             2   0       1.2297600        8.4908470        0.4846183          0.0000000        0.0103880       -0.0077529
             3   0       1.2297600        7.4811752        1.4986904          0.0000000        0.0039852       -0.0063776
             4   0       0.0000000        7.0216695        2.0061325          0.0000000        0.0023104        0.0015738
             5   0       0.0000000        7.0097741        4.1271427          0.0000000       -0.0021456       -0.0015905
             6   0       1.2297600        7.4637767        4.6394541          0.0000000        0.0110393        0.0158714
             7   0       1.2297600        8.4660692        5.6614524          0.0000000       -0.0115414       -0.0025536
             8   0       0.0000000        8.9729776        6.1479163          0.0000000       -0.0036774       -0.0010372
             9   0       0.0000000       10.0109434        7.1287344          0.0000000        0.0084972        0.0039166
             10   0       1.2297600       10.5182179        7.6151114          0.0000000       -0.0099797       -0.0149633
             11   0       1.2297600       11.5207207        8.6360452          0.0000000        0.0000671        0.0108233
             12   0       0.0000000       11.9755151        9.1478872          0.0000000       -0.0105559        0.0093930
             13   0       0.0000000       11.9764387       11.2750629          0.0000000        0.0074845        0.0098296
             14   0       1.2297600       11.5250151       11.7905033          0.0000000        0.0178085       -0.0050278
             15   0       1.2297600       10.5345049       12.8237880          0.0000000        0.0124773       -0.0216410
             16   0       0.0000000       10.0330219       13.3153409          0.0000000        0.0038865       -0.0117494
             17   1       0.0000000        6.1066529        3.0613841          0.0000000        0.0013768        0.0055623
             18   1       0.0000000       12.8812426       10.2108240          0.0000000       -0.0008636        0.0071549
 Energy
         -3358.5510298124764
 PlusStress:  xx          yy          zz          yz          xz          xy
              0.0090732       -0.0001386        0.0018997        0.0000129        0.0000000        0.0000000
END_CFG

BEGIN_CFG
 Size
    18
 SuperCell
         2.4595098289855892   0.0   0.0
         0.0   17.999998928235733   0.0
         0.0   0.0   16.284699880853747
 AtomData:  id type	  cartes_x	cartes_y      cartes_z           fx          fy          fz
             1   0       0.0000000        9.0000000        0.0000000          0.0000000        0.0494045        0.1036836
             2   0       1.2297600        8.6328125        0.6025769          0.0000000       -0.0192568       -0.0183973
             3   0       1.2297600        7.8611539        1.8127995          0.0000000       -0.0146666       -0.0218276
             4   0       0.0000000        7.4754861        2.3810486          0.0000000       -0.0039657       -0.0253603
             5   0       0.0000000        7.4833346        4.5918274          0.0000000       -0.0142377       -0.0111478
             6   0       1.2297600        7.8731178        5.1554577          0.0000000        0.0051718        0.0209727
             7   0       1.2297600        8.6544742        6.3579513          0.0000000        0.0071592       -0.0019594
             8   0       0.0000000        9.0259291        6.9561762          0.0000000        0.0153181        0.0066766
             9   0       0.0000000        9.7815020        8.1720627          0.0000000        0.0088400        0.0160797
             10   0       1.2297600       10.1562654        8.7690435          0.0000000        0.0003435        0.0000758
             11   0       1.2297600       10.9461396        9.9667835          0.0000000        0.0051216       -0.0043552
             12   0       0.0000000       11.3399456       10.5290371          0.0000000       -0.0037420       -0.0023616
             13   0       0.0000000       11.3445291       12.7346436          0.0000000       -0.0118458       -0.0212041
             14   0       1.2297600       10.9501098       13.2955518          0.0000000       -0.0116636       -0.0049813
             15   0       1.2297600       10.1493865       14.4850112          0.0000000       -0.0128797        0.0021667
             16   0       0.0000000        9.7668385       15.0763749          0.0000000       -0.0095936       -0.0065332
             17   1       0.0000000        6.6304296        3.4898239          0.0000000        0.0150348       -0.0255151
             18   1       0.0000000       12.1951284       11.6302672          0.0000000       -0.0045424       -0.0060120
 Energy
         -3358.5746105174494
 PlusStress:  xx          yy          zz          yz          xz          xy
              0.0076060       -0.0002396       -0.0021072        0.0000523        0.0000000        0.0000000
END_CFG

BEGIN_CFG
 Size
    18
 SuperCell
         2.4595098289855892   0.0   0.0
         0.0   17.999998928235733   0.0
         0.0   0.0   18.161298501840268
 AtomData:  id type	  cartes_x	cartes_y      cartes_z           fx          fy          fz
             1   0       0.0000000        9.0000000        0.0000000          0.0000000        0.0408019       -0.0433015
             2   0       1.2297600        8.7466260        0.6544620          0.0000000        0.0059516        0.0168757
             3   0       1.2297600        8.2545356        1.9974917          0.0000000       -0.0128098        0.0034263
             4   0       0.0000000        8.0351861        2.6425888          0.0000000       -0.0082301        0.0052368
             5   0       0.0000000        8.0422832        5.1291685          0.0000000        0.0100363       -0.0171626
             6   0       1.2297600        8.2677384        5.7717893          0.0000000        0.0102474        0.0024713
             7   0       1.2297600        8.7728530        7.1098152          0.0000000        0.0037464        0.0130023
             8   0       0.0000000        9.0290245        7.7640305          0.0000000       -0.0128910        0.0061269
             9   0       0.0000000        9.5493556        9.0945262          0.0000000        0.0025708        0.0175779
             10   0       1.2297600        9.8040765        9.7496187          0.0000000        0.0110601        0.0004931
             11   0       1.2297600       10.3108447       11.0880076          0.0000000        0.0158670       -0.0123084
             12   0       0.0000000       10.5411638       11.7295684          0.0000000       -0.0087194       -0.0084137
             13   0       0.0000000       10.5472049       14.2103004          0.0000000       -0.0216862       -0.0132373
             14   0       1.2297600       10.3159652       14.8507584          0.0000000       -0.0093321        0.0059146
             15   0       1.2297600        9.7954564       16.1831402          0.0000000       -0.0046771        0.0143588
             16   0       0.0000000        9.5312369       16.8341673          0.0000000       -0.0015931        0.0232798
             17   1       0.0000000        7.4959823        3.8875969          0.0000000       -0.0179365       -0.0057994
             18   1       0.0000000       11.0957222       12.9688146          0.0000000       -0.0024063       -0.0085404
 Energy
         -3358.645002013688
 PlusStress:  xx          yy          zz          yz          xz          xy
              0.0070937       -0.0001414        0.0012937       -0.0000220        0.0000000        0.0000000
END_CFG

BEGIN_CFG
 Size
    18
 SuperCell
         2.4595098289855892   0.0   0.0
         0.0   17.999998928235733   0.0
         0.0   0.0   18.299599199033953
 AtomData:  id type	  cartes_x	cartes_y      cartes_z           fx          fy          fz
             1   0       0.0000000        9.0000000        0.0000000          0.0000000        0.0465961       -0.0459086
             2   0       1.2297600        8.7652539        0.6618808          0.0000000        0.0013460        0.0172302
             3   0       1.2297600        8.3054123        2.0168612          0.0000000       -0.0105114        0.0031429
             4   0       0.0000000        8.0981857        2.6667021          0.0000000       -0.0058819        0.0031154
             5   0       0.0000000        8.1098608        5.1621672          0.0000000        0.0068438       -0.0203521
             6   0       1.2297600        8.3247163        5.8091433          0.0000000        0.0143630        0.0032087
             7   0       1.2297600        8.7996186        7.1588647          0.0000000        0.0042038        0.0172225
             8   0       0.0000000        9.0375777        7.8206394          0.0000000       -0.0193062        0.0014570
             9   0       0.0000000        9.5185360        9.1664452          0.0000000        0.0038898        0.0175915
             10   0       1.2297600        9.7549787        9.8289367          0.0000000        0.0168775       -0.0007546
             11   0       1.2297600       10.2325635       11.1786651          0.0000000        0.0156989       -0.0199980
             12   0       0.0000000       10.4532347       11.8241564          0.0000000       -0.0104731       -0.0080925
             13   0       0.0000000       10.4576722       14.3119937          0.0000000       -0.0219109       -0.0116476
             14   0       1.2297600       10.2354216       14.9562470          0.0000000       -0.0089742        0.0090295
             15   0       1.2297600        9.7420735       16.2994822          0.0000000       -0.0060606        0.0197011
             16   0       0.0000000        9.4944614       16.9577088          0.0000000        0.0002103        0.0196476
             17   1       0.0000000        7.5728813        3.9168906          0.0000000       -0.0169189        0.0032185
             18   1       0.0000000       10.9979458       13.0673230          0.0000000       -0.0099916       -0.0078108
 Energy
         -3358.652902022652
 PlusStress:  xx          yy          zz          yz          xz          xy
              0.0069440       -0.0001588        0.0006207       -0.0000321        0.0000000        0.0000000
END_CFG

BEGIN_CFG
 Size
    18
 SuperCell
         2.4595098289855892   0.0   0.0
         0.0   17.999998928235733   0.0
         0.0   0.0   18.017399960275807
 AtomData:  id type	  cartes_x	cartes_y      cartes_z           fx          fy          fz
             1   0       0.0000000        9.0000000        0.0000000          0.0000000        0.0342211       -0.0365020
             2   0       1.2297600        8.7279759        0.6465813          0.0000000        0.0076987        0.0144887
             3   0       1.2297600        8.2031786        1.9767311          0.0000000       -0.0123837        0.0072055
             4   0       0.0000000        7.9718415        2.6171360          0.0000000       -0.0076889        0.0010385
             5   0       0.0000000        7.9755977        5.0952767          0.0000000        0.0108598       -0.0193270
             6   0       1.2297600        8.2115288        5.7335157          0.0000000        0.0067116        0.0032440
             7   0       1.2297600        8.7465069        7.0595201          0.0000000        0.0034718        0.0084695
             8   0       0.0000000        9.0206528        7.7057974          0.0000000       -0.0063540        0.0063105
             9   0       0.0000000        9.5802163        9.0197720          0.0000000       -0.0005476        0.0149330
             10   0       1.2297600        9.8531018        9.6668950          0.0000000        0.0071472        0.0033928
             11   0       1.2297600       10.3890114       10.9933150          0.0000000        0.0123542       -0.0093123
             12   0       0.0000000       10.6287018       11.6308047          0.0000000       -0.0059495       -0.0073428
             13   0       0.0000000       10.6352502       14.1044930          0.0000000       -0.0183736       -0.0157907
             14   0       1.2297600       10.3951235       14.7411249          0.0000000       -0.0091079        0.0042413
             15   0       1.2297600        9.8482077       16.0624798          0.0000000       -0.0029671        0.0079851
             16   0       0.0000000        9.5678243       16.7061071          0.0000000       -0.0046002        0.0227597
             17   1       0.0000000        7.4197205        3.8571432          0.0000000       -0.0181340       -0.0032067
             18   1       0.0000000       11.1925449       12.8662945          0.0000000        0.0036422       -0.0025868
 Energy
         -3358.633655546901
 PlusStress:  xx          yy          zz          yz          xz          xy
              0.0072314       -0.0001285        0.0018437       -0.0000138        0.0000000        0.0000000
END_CFG

BEGIN_CFG
 Size
    18
 SuperCell
         2.4595098289855892   0.0   0.0
         0.0   17.999998928235733   0.0
         0.0   0.0   19.635199119017145
 AtomData:  id type	  cartes_x	cartes_y      cartes_z           fx          fy          fz
             1   0       0.0000000        9.0000000        0.0000000          0.0000000        0.1025078       -0.0501571
             2   0       1.2297600        8.9742202        0.7201834          0.0000000       -0.0206730        0.0052227
             3   0       1.2297600        8.8913717        2.1704997          0.0000000       -0.0222285        0.0035844
             4   0       0.0000000        8.8313468        2.8693316          0.0000000       -0.0013676       -0.0044393
             5   0       0.0000000        8.8665629        5.5008380          0.0000000       -0.0068975       -0.0058385
             6   0       1.2297600        8.9436987        6.1976781          0.0000000       -0.0102474       -0.0018373
             7   0       1.2297600        9.0557485        7.6457202          0.0000000        0.0066291        0.0120685
             8   0       0.0000000        9.0926648        8.3657927          0.0000000        0.0023536        0.0137109
             9   0       0.0000000        9.1554530        9.8159680          0.0000000       -0.0103628        0.0159406
             10   0       1.2297600        9.1867937       10.5369277          0.0000000       -0.0119590        0.0012904
             11   0       1.2297600        9.2788776       11.9874679          0.0000000        0.0048548        0.0036523
             12   0       0.0000000        9.3424976       12.6865299          0.0000000        0.0042400       -0.0050787
             13   0       0.0000000        9.3217222       15.3193690          0.0000000       -0.0134296       -0.0088796
             14   0       1.2297600        9.2446965       16.0166504          0.0000000       -0.0180234       -0.0040233
             15   0       1.2297600        9.1204378       17.4643660          0.0000000       -0.0149209        0.0159264
             16   0       0.0000000        9.0747030       18.1845433          0.0000000       -0.0032483        0.0164399
             17   1       0.0000000        8.5075829        4.1895777          0.0000000        0.0028362       -0.0036353
             18   1       0.0000000        9.6729523       14.0057483          0.0000000        0.0099371       -0.0039477
 Energy
         -3358.298195919574
 PlusStress:  xx          yy          zz          yz          xz          xy
              0.0038361       -0.0001203       -0.0220064        0.0000046        0.0000000        0.0000000
END_CFG

BEGIN_CFG
 Size
    18
 SuperCell
         2.4595098289855892   0.0   0.0
         0.0   17.999998928235733   0.0
         0.0   0.0   14.53929889267481
 AtomData:  id type	  cartes_x	cartes_y      cartes_z           fx          fy          fz
             1   0       0.0000000        9.0000000        0.0000000          0.0000000       -0.0260388        0.0180941
             2   0       1.2297600        8.5058265        0.4998443          0.0000000        0.0081633       -0.0154513
             3   0       1.2297600        7.5209034        1.5378320          0.0000000       -0.0119027        0.0054420
             4   0       0.0000000        7.0684588        2.0519607          0.0000000        0.0086731       -0.0022757
             5   0       0.0000000        7.0587379        4.1814790          0.0000000        0.0016926       -0.0047085
             6   0       1.2297600        7.5066608        4.6990956          0.0000000        0.0073670        0.0141496
             7   0       1.2297600        8.4863056        5.7428878          0.0000000       -0.0137832       -0.0038420
             8   0       0.0000000        8.9789749        6.2436510          0.0000000       -0.0037443       -0.0018383
             9   0       0.0000000        9.9872114        7.2550755          0.0000000        0.0058691       -0.0000599
             10   0       1.2297600       10.4803925        7.7553941          0.0000000        0.0025796       -0.0048805
             11   0       1.2297600       11.4609737        8.7977936          0.0000000       -0.0040294        0.0055266
             12   0       0.0000000       11.9095622        9.3149367          0.0000000       -0.0072197        0.0128774
             13   0       0.0000000       11.9107513       11.4493922          0.0000000        0.0083335        0.0023983
             14   0       1.2297600       11.4650455       11.9695706          0.0000000        0.0139657       -0.0046254
             15   0       1.2297600       10.4942489       13.0214600          0.0000000        0.0079892       -0.0183749
             16   0       0.0000000       10.0052442       13.5255587          0.0000000        0.0034317       -0.0133695
             17   1       0.0000000        6.1603919        3.1124626          0.0000000       -0.0047812        0.0028876
             18   1       0.0000000       12.8104274       10.3814262          0.0000000        0.0034353        0.0080506
 Energy
         -3358.570386766446
 PlusStress:  xx          yy          zz          yz          xz          xy
              0.0089318       -0.0000588        0.0016160        0.0000193        0.0000000        0.0000000
END_CFG

BEGIN_CFG
 Size
    18
 SuperCell
         2.4595098289855892   0.0   0.0
         0.0   17.999998928235733   0.0
         0.0   0.0   16.67279823431853
 AtomData:  id type	  cartes_x	cartes_y      cartes_z           fx          fy          fz
             1   0       0.0000000        9.0000000        0.0000000          0.0000000        0.0434835        0.0100157
             2   0       1.2297600        8.6369446        0.6018148          0.0000000       -0.0167034        0.0009467
             3   0       1.2297600        7.8970694        1.8285447          0.0000000       -0.0122554       -0.0012323
             4   0       0.0000000        7.5403317        2.4113919          0.0000000       -0.0110943        0.0015565
             5   0       0.0000000        7.5431925        4.7250339          0.0000000       -0.0110591        0.0003456
             6   0       1.2297600        7.9017156        5.3067281          0.0000000        0.0165235       -0.0046817
             7   0       1.2297600        8.6492200        6.5290231          0.0000000        0.0008577        0.0017170
             8   0       0.0000000        9.0158769        7.1291620          0.0000000       -0.0124308        0.0104688
             9   0       0.0000000        9.7593203        8.3510718          0.0000000        0.0073822        0.0057140
             10   0       1.2297600       10.1246637        8.9522102          0.0000000        0.0095540        0.0130648
             11   0       1.2297600       10.8724937       10.1751094          0.0000000       -0.0071662        0.0041025
             12   0       0.0000000       11.2338777       10.7559879          0.0000000        0.0051666       -0.0242635
             13   0       0.0000000       11.2364941       13.0602649          0.0000000        0.0127218        0.0074685
             14   0       1.2297600       10.8755532       13.6404694          0.0000000       -0.0161823       -0.0111686
             15   0       1.2297600       10.1220929       14.8587150          0.0000000       -0.0155379       -0.0135533
             16   0       0.0000000        9.7511117       15.4556819          0.0000000       -0.0043560        0.0150188
             17   1       0.0000000        6.7763075        3.5691998          0.0000000        0.0134651        0.0005145
             18   1       0.0000000       12.0087496       11.9075411          0.0000000       -0.0023688       -0.0160339
 Energy
         -3358.5505028640277
 PlusStress:  xx          yy          zz          yz          xz          xy
              0.0076262       -0.0001625       -0.0002727       -0.0001139        0.0000000        0.0000000
END_CFG

BEGIN_CFG
 Size
    18
 SuperCell
         2.4595098289855892   0.0   0.0
         0.0   17.999998928235733   0.0
         0.0   0.0   14.773700017416452
 AtomData:  id type	  cartes_x	cartes_y      cartes_z           fx          fy          fz
             1   0       0.0000000        9.0000000        0.0000000          0.0000000       -0.0191429       -0.0200065
             2   0       1.2297600        8.5213661        0.5141304          0.0000000        0.0003900       -0.0020926
             3   0       1.2297600        7.5614951        1.5755169          0.0000000        0.0001244       -0.0022168
             4   0       0.0000000        7.1173632        2.0962931          0.0000000       -0.0048522       -0.0027105
             5   0       0.0000000        7.1151442        4.2312978          0.0000000       -0.0199672        0.0096422
             6   0       1.2297600        7.5565103        4.7543531          0.0000000       -0.0145455        0.0084872
             7   0       1.2297600        8.5093069        5.8218460          0.0000000        0.0104112        0.0042976
             8   0       0.0000000        8.9860944        6.3377834          0.0000000        0.0019965       -0.0065802
             9   0       0.0000000        9.9620421        7.3804208          0.0000000       -0.0041909        0.0027806
             10   0       1.2297600       10.4395289        7.8955111          0.0000000        0.0016262        0.0034108
             11   0       1.2297600       11.3952563        8.9607590          0.0000000        0.0032015       -0.0183944
             12   0       0.0000000       11.8378193        9.4825997          0.0000000        0.0137243       -0.0065118
             13   0       0.0000000       11.8388753       11.6177074          0.0000000        0.0124699        0.0061177
             14   0       1.2297600       11.3971328       12.1402294          0.0000000        0.0159604        0.0107297
             15   0       1.2297600       10.4458210       13.2087473          0.0000000       -0.0007860        0.0181255
             16   0       0.0000000        9.9715403       13.7268200          0.0000000       -0.0024965        0.0057356
             17   1       0.0000000        6.2171575        3.1628894          0.0000000        0.0025140       -0.0047918
             18   1       0.0000000       12.7370362       10.5498420          0.0000000        0.0035630       -0.0060226
 Energy
         -3358.585137241298
 PlusStress:  xx          yy          zz          yz          xz          xy
              0.0088565        0.0001139        0.0016931       -0.0000211        0.0000000        0.0000000
END_CFG

BEGIN_CFG
 Size
    18
 SuperCell
         2.4595098289855892   0.0   0.0
         0.0   17.999998928235733   0.0
         0.0   0.0   16.481298339523885
 AtomData:  id type	  cartes_x	cartes_y      cartes_z           fx          fy          fz
             1   0       0.0000000        9.0000000        0.0000000          0.0000000        0.0161355        0.0825334
             2   0       1.2297600        8.6466513        0.6100498          0.0000000       -0.0003016        0.0024631
             3   0       1.2297600        7.9027207        1.8368978          0.0000000       -0.0108503       -0.0008120
             4   0       0.0000000        7.5282098        2.4121666          0.0000000       -0.0144627       -0.0120662
             5   0       0.0000000        7.5395475        4.6389155          0.0000000        0.0095732        0.0112403
             6   0       1.2297600        7.9218531        5.2094025          0.0000000        0.0087857       -0.0079162
             7   0       1.2297600        8.6811784        6.4273608          0.0000000       -0.0076431       -0.0059069
             8   0       0.0000000        9.0380767        7.0352912          0.0000000       -0.0079972       -0.0035785
             9   0       0.0000000        9.7581266        8.2732436          0.0000000        0.0003630       -0.0060244
             10   0       1.2297600       10.1152255        8.8808339          0.0000000       -0.0008842       -0.0055528
             11   0       1.2297600       10.8762022       10.0970552          0.0000000        0.0010557       -0.0046146
             12   0       0.0000000       11.2602642       10.6657648          0.0000000        0.0100286       -0.0167047
             13   0       0.0000000       11.2616257       12.8798049          0.0000000        0.0001903       -0.0021152
             14   0       1.2297600       10.8752002       13.4462534          0.0000000       -0.0142802       -0.0155914
             15   0       1.2297600       10.0991510       14.6518078          0.0000000       -0.0070507       -0.0119076
             16   0       0.0000000        9.7321393       15.2524037          0.0000000        0.0072685       -0.0071551
             17   1       0.0000000        6.6958737        3.5297759          0.0000000        0.0046097        0.0072636
             18   1       0.0000000       12.1071405       11.7724404          0.0000000        0.0054597       -0.0035551
 Energy
         -3358.5575295236263
 PlusStress:  xx          yy          zz          yz          xz          xy
              0.0074857       -0.0001276       -0.0023220       -0.0001790        0.0000000        0.0000000
END_CFG

BEGIN_CFG
 Size
    18
 SuperCell
         2.4595098289855892   0.0   0.0
         0.0   17.999998928235733   0.0
         0.0   0.0   15.228999557938605
 AtomData:  id type	  cartes_x	cartes_y      cartes_z           fx          fy          fz
             1   0       0.0000000        9.0000000        0.0000000          0.0000000        0.0222552        0.0201662
             2   0       1.2297600        8.5479139        0.5390709          0.0000000       -0.0037520       -0.0079193