BEGIN_CFG
 Size
    26
 SuperCell
         20.4595   0.0   0.0
         0.0   18.0   0.0
         0.0   0.0   15.229
 AtomData:  id type	  cartes_x	cartes_y      cartes_z           fx          fy          fz
             1   0      10.2298000        9.0000000        0.0000000          0.0001172       -0.0012115        0.0007700
             2   0      11.4595000        8.5436200        0.5438920         -0.0078812       -0.0044539        0.0012586
             3   0      11.4595000        7.6308600        1.6316700          0.0049270        0.0012562       -0.0018221
             4   0      10.2298000        7.1744800        2.1755700          0.0007055        0.0088377        0.0077750
             5   0      10.2298000        7.1744800        4.3511300          0.0001846        0.0085453       -0.0089302
             6   0      11.4595000        7.6308600        4.8950200          0.0051653        0.0005590        0.0007297
             7   0      11.4595000        8.5436200        5.9828100         -0.0056675       -0.0056395       -0.0019517
             8   0      10.2298000        9.0000000        6.5267000         -0.0005006        0.0055993        0.0065386
             9   0      10.2298000        9.9127600        7.6144800          0.0000972       -0.0047967       -0.0051435
             10   0      11.4595000       10.3691000        8.1583700         -0.0068021       -0.0002242       -0.0042140
             11   0      11.4595000       11.2819000        9.2461600          0.0001682        0.0080252        0.0087932
             12   0      10.2298000       11.7383000        9.7900500          0.0007592       -0.0166888       -0.0026233
             13   0      10.2298000       11.7383000       11.9656000          0.0008577       -0.0147103        0.0001625
             14   0      11.4595000       11.2819000       12.5095000          0.0021255       -0.0008276        0.0007785
             15   0      11.4595000       10.3691000       13.5973000         -0.0059871        0.0072834       -0.0039148
             16   0      10.2298000        9.9127600       14.1412000          0.0003250       -0.0014609        0.0027488
             17   0       9.0000000        8.5436200        0.5438920          0.0075480       -0.0073243        0.0045043
             18   0       9.0000000        7.6308600        1.6316700         -0.0055135        0.0046275       -0.0056431
             19   0       9.0000000        7.6308600        4.8950200         -0.0052445        0.0013406        0.0016692
             20   0       9.0000000        8.5436200        5.9828100          0.0061071       -0.0058639       -0.0023662
             21   0       9.0000000       10.3691000        8.1583700          0.0065661        0.0020656       -0.0016170
             22   0       9.0000000       11.2819000        9.2461600         -0.0007572        0.0052355        0.0056163
             23   0       9.0000000       11.2819000       12.5095000         -0.0028305       -0.0043688        0.0047874
             24   0       9.0000000       10.3691000       13.5973000          0.0055153        0.0103831       -0.0073724
             25   1      10.2298000        6.2617200        3.2633500         -0.0000126       -0.0098620        0.0011359
             26   1      10.2298000       12.6510000       10.8778000          0.0000278        0.0136736       -0.0016692
 Energy
         -4565.322499324353
 PlusStress:  xx          yy          zz          yz          xz          xy
             -0.0000257       -0.0000193        0.0003737        0.0000018        0.0000000       -0.0000000
END_CFG

BEGIN_CFG
 Size
    26
 SuperCell
         20.4595   0.0   0.0
         0.0   18.0   0.0
         0.0   0.0   16.0833
 AtomData:  id type	  cartes_x	cartes_y      cartes_z           fx          fy          fz
             1   0      10.2298000        9.0000000        0.0000000         -0.0022855        0.0166194        0.0030398
             2   0      11.4595000        8.5826700        0.5744020         -0.0031900       -0.0131401        0.0084728
             3   0      11.4595000        7.7480200        1.7232100          0.0067710        0.0044963       -0.0099509
             4   0      10.2298000        7.3306900        2.2976100         -0.0032147        0.0090405        0.0041685
             5   0      10.2298000        7.3306900        4.5952200         -0.0030131        0.0054312       -0.0081707
             6   0      11.4595000        7.7480200        5.1696200          0.0087446        0.0080684        0.0141891
             7   0      11.4595000        8.5826700        6.3184200         -0.0088955       -0.0103379       -0.0063655
             8   0      10.2298000        9.0000000        6.8928200         -0.0014640       -0.0020330       -0.0209877
             9   0      10.2298000        9.8346600        8.0416300         -0.0015622       -0.0006747        0.0164083
             10   0      11.4595000       10.2520000        8.6160300         -0.0062671        0.0107464        0.0066977
             11   0      11.4595000       11.0866000        9.7648400          0.0051054       -0.0052304       -0.0098080
             12   0      10.2298000       11.5040000       10.3392000         -0.0029524       -0.0114455       -0.0014959
             13   0      10.2298000       11.5040000       12.6368000         -0.0033072       -0.0148929        0.0060848
             14   0      11.4595000       11.0866000       13.2112000          0.0032362       -0.0024042        0.0066532
             15   0      11.4595000       10.2520000       14.3601000         -0.0021965        0.0129432       -0.0090655
             16   0      10.2298000        9.8346600       14.9345000         -0.0021343       -0.0172819       -0.0009302
             17   0       9.0000000        8.5826700        0.5744020          0.0058207       -0.0030884       -0.0041966
             18   0       9.0000000        7.7480200        1.7232100         -0.0036695       -0.0058896        0.0034478
             19   0       9.0000000        7.7480200        5.1696200         -0.0058449       -0.0035666       -0.0007850
             20   0       9.0000000        8.5826700        6.3184200          0.0108837        0.0005160        0.0073446
             21   0       9.0000000       10.2520000        8.6160300          0.0080038        0.0022654       -0.0040122
             22   0       9.0000000       11.0866000        9.7648400         -0.0022888        0.0039688        0.0019977
             23   0       9.0000000       11.0866000       13.2112000         -0.0000129        0.0078434       -0.0065072
             24   0       9.0000000       10.2520000       14.3601000          0.0045362        0.0030105        0.0034550
             25   1      10.2298000        6.4960300        3.4464100         -0.0005232       -0.0072356        0.0014509
             26   1      10.2298000       12.3386000       11.4880000         -0.0002805        0.0122711       -0.0011346
 Energy
         -4565.431896434566
 PlusStress:  xx          yy          zz          yz          xz          xy
             -0.0000230       -0.0000165        0.0002773       -0.0000009        0.0000000        0.0000000
END_CFG

BEGIN_CFG
 Size
    26
 SuperCell
         20.4595   0.0   0.0
         0.0   18.0   0.0
         0.0   0.0   14.5393
 AtomData:  id type	  cartes_x	cartes_y      cartes_z           fx          fy          fz
             1   0      10.2298000        9.0000000        0.0000000         -0.0016345        0.0004785       -0.0024348
             2   0      11.4595000        8.5157800        0.5192610         -0.0008153       -0.0030246        0.0116769
             3   0      11.4595000        7.5473400        1.5577800          0.0062660        0.0084774       -0.0170320
             4   0      10.2298000        7.0631200        2.0770400          0.0010722       -0.0088916        0.0024703
             5   0      10.2298000        7.0631200        4.1540900          0.0006070       -0.0065836       -0.0002376
             6   0      11.4595000        7.5473400        4.6733500          0.0056212        0.0048352        0.0123151
             7   0      11.4595000        8.5157800        5.7118700         -0.0012195        0.0011313       -0.0077264
             8   0      10.2298000        9.0000000        6.2311300         -0.0015529        0.0006477        0.0050777
             9   0      10.2298000        9.9684400        7.2696600         -0.0008089       -0.0005885       -0.0070291
             10   0      11.4595000       10.4527000        7.7889200         -0.0023328       -0.0115257        0.0002016
             11   0      11.4595000       11.4211000        8.8274400         -0.0022819        0.0107441        0.0028046
             12   0      10.2298000       11.9053000        9.3467000         -0.0000090       -0.0089737       -0.0213569
             13   0      10.2298000       11.9053000       11.4237000          0.0004286       -0.0058099        0.0163661
             14   0      11.4595000       11.4211000       11.9430000          0.0000643        0.0012920        0.0066332
             15   0      11.4595000       10.4527000       12.9815000         -0.0011675       -0.0023238       -0.0067216
             16   0      10.2298000        9.9684400       13.5008000         -0.0008312       -0.0007862        0.0023207
             17   0       9.0000000        8.5157800        0.5192610          0.0025346       -0.0000658        0.0089382
             18   0       9.0000000        7.5473400        1.5577800         -0.0074032        0.0068414       -0.0155009
             19   0       9.0000000        7.5473400        4.6733500         -0.0059899        0.0025498        0.0100384
             20   0       9.0000000        8.5157800        5.7118700          0.0030524        0.0043855       -0.0047514
             21   0       9.0000000       10.4527000        7.7889200          0.0033769       -0.0146535       -0.0027200
             22   0       9.0000000       11.4211000        8.8274400          0.0023032        0.0136880        0.0056719
             23   0       9.0000000       11.4211000       11.9430000         -0.0005651        0.0039492        0.0040829
             24   0       9.0000000       10.4527000       12.9815000          0.0022644       -0.0056083       -0.0036422
             25   1      10.2298000        6.0946900        3.1155700         -0.0005595        0.0061611        0.0000568
             26   1      10.2298000       12.8738000       10.3852000         -0.0004201        0.0036535        0.0004985
 Energy
         -4565.212116073588
 PlusStress:  xx          yy          zz          yz          xz          xy
             -0.0000202       -0.0000275        0.0004536        0.0000018        0.0000000       -0.0000000
END_CFG

BEGIN_CFG
 Size
    26
 SuperCell
         20.4595   0.0   0.0
         0.0   18.0   0.0
         0.0   0.0   14.3005
 AtomData:  id type	  cartes_x	cartes_y      cartes_z           fx          fy          fz
             1   0      10.2298000        9.0000000        0.0000000          0.0027210        0.0198345       -0.0120340
             2   0      11.4595000        8.5067900        0.5107310          0.0031262        0.0090595        0.0015033
             3   0      11.4595000        7.5203800        1.5321900          0.0015727       -0.0147301        0.0036846
             4   0      10.2298000        7.0271700        2.0429200          0.0007659        0.0038662       -0.0152397
             5   0      10.2298000        7.0271700        4.0858500          0.0009400       -0.0046282        0.0053309
             6   0      11.4595000        7.5203800        4.5965800          0.0061958       -0.0056004        0.0054266
             7   0      11.4595000        8.5067900        5.6180400         -0.0030992        0.0089978       -0.0023371
             8   0      10.2298000        9.0000000        6.1287800          0.0035967       -0.0078858       -0.0096571
             9   0      10.2298000        9.9864100        7.1502400          0.0016398        0.0081478        0.0101471
             10   0      11.4595000       10.4796000        7.6609700         -0.0022927       -0.0038752        0.0071646
             11   0      11.4595000       11.4660000        8.6824300          0.0092297       -0.0014293       -0.0122935
             12   0      10.2298000       11.9592000        9.1931600         -0.0007058        0.0096272        0.0006561
             13   0      10.2298000       11.9592000       11.2361000          0.0002661        0.0009374        0.0090580
             14   0      11.4595000       11.4660000       11.7468000          0.0041654        0.0129650       -0.0018563
             15   0      11.4595000       10.4796000       12.7683000          0.0024364       -0.0099610       -0.0009400
             16   0      10.2298000        9.9864100       13.2790000          0.0028850       -0.0181841        0.0108686
             17   0       9.0000000        8.5067900        0.5107310         -0.0059331        0.0010675        0.0087317
             18   0       9.0000000        7.5203800        1.5321900         -0.0023929       -0.0081730       -0.0025541
             19   0       9.0000000        7.5203800        4.5965800         -0.0071975        0.0039544        0.0145458
             20   0       9.0000000        8.5067900        5.6180400         -0.0006690       -0.0023693       -0.0126478
             21   0       9.0000000       10.4796000        7.6609700          0.0008279       -0.0012676        0.0094305
             22   0       9.0000000       11.4660000        8.6824300         -0.0088495       -0.0025001       -0.0132466
             23   0       9.0000000       11.4660000       11.7468000         -0.0045563        0.0068985        0.0039094
             24   0       9.0000000       10.4796000       12.7683000         -0.0052803       -0.0022140       -0.0079344
             25   1      10.2298000        6.0407600        3.0643900          0.0003944        0.0106927        0.0023376
             26   1      10.2298000       12.9457000       10.2146000          0.0002119       -0.0132301       -0.0020541
 Energy
         -4565.169735431673
 PlusStress:  xx          yy          zz          yz          xz          xy
             -0.0000110       -0.0000248        0.0004784       -0.0000037       -0.0000000       -0.0000000
END_CFG

BEGIN_CFG
 Size
    26
 SuperCell
         20.4595   0.0   0.0
         0.0   18.0   0.0
         0.0   0.0   14.7737
 AtomData:  id type	  cartes_x	cartes_y      cartes_z           fx          fy          fz
             1   0      10.2298000        9.0000000        0.0000000          0.0014375        0.0002101       -0.0057035
             2   0      11.4595000        8.5249200        0.5276330         -0.0051337       -0.0063182        0.0044064
             3   0      11.4595000        7.5747500        1.5829000          0.0025343        0.0068654       -0.0039443
             4   0      10.2298000        7.0996700        2.1105300          0.0018779        0.0008479       -0.0014213
             5   0      10.2298000        7.0996700        4.2210600          0.0020042       -0.0020235       -0.0015725
             6   0      11.4595000        7.5747500        4.7487000          0.0041415        0.0152798        0.0125925
             7   0      11.4595000        8.5249200        5.8039600         -0.0015596       -0.0160946       -0.0140716
             8   0      10.2298000        9.0000000        6.3315900          0.0017010        0.0116564        0.0160259
             9   0      10.2298000        9.9501700        7.3868600          0.0010359       -0.0032352       -0.0085366
             10   0      11.4595000       10.4252000        7.9144900         -0.0063661       -0.0000417       -0.0019749
             11   0      11.4595000       11.3754000        8.9697600         -0.0000985        0.0014452        0.0044390
             12   0      10.2298000       11.8505000        9.4973900          0.0012346       -0.0073960       -0.0112177
             13   0      10.2298000       11.8505000       11.6079000          0.0017139       -0.0115049        0.0144650
             14   0      11.4595000       11.3754000       12.1356000         -0.0023744        0.0105366       -0.0151448
             15   0      11.4595000       10.4252000       13.1908000         -0.0108899       -0.0121377        0.0138528
             16   0      10.2298000        9.9501700       13.7185000          0.0012786        0.0093442       -0.0017432
             17   0       9.0000000        8.5249200        0.5276330          0.0035492       -0.0079385        0.0060364
             18   0       9.0000000        7.5747500        1.5829000         -0.0041305        0.0086243       -0.0058541
             19   0       9.0000000        7.5747500        4.7487000         -0.0057768        0.0168220        0.0142763
             20   0       9.0000000        8.5249200        5.8039600         -0.0002692       -0.0177357       -0.0157303
             21   0       9.0000000       10.4252000        7.9144900          0.0051283        0.0016620       -0.0002484
             22   0       9.0000000       11.3754000        8.9697600         -0.0008423       -0.0001885        0.0026922
             23   0       9.0000000       11.3754000       12.1356000          0.0009775        0.0088485       -0.0132934
             24   0       9.0000000       10.4252000       13.1908000          0.0093879       -0.0105631        0.0122503
             25   1      10.2298000        6.1495000        3.1658000         -0.0003196       -0.0050535        0.0000913
             26   1      10.2298000       12.8007000       10.5527000         -0.0002417        0.0080892       -0.0006713
 Energy
         -4565.25169992947
 PlusStress:  xx          yy          zz          yz          xz          xy
             -0.0000257       -0.0000230        0.0004269       -0.0000046        0.0000000        0.0000000
END_CFG

BEGIN_CFG
 Size
    26
 SuperCell
         20.4595   0.0   0.0
         0.0   18.0   0.0
         0.0   0.0   15.4497
 AtomData:  id type	  cartes_x	cartes_y      cartes_z           fx          fy          fz
             1   0      10.2298000        9.0000000        0.0000000         -0.0000278        0.0062892       -0.0051301
             2   0      11.4595000        8.5531800        0.5517740         -0.0040963       -0.0089883        0.0076598
             3   0      11.4595000        7.6595500        1.6553200          0.0050525        0.0032422       -0.0068085
             4   0      10.2298000        7.2127300        2.2070900         -0.0002011        0.0057940        0.0108292
             5   0      10.2298000        7.2127300        4.4141900         -0.0002584        0.0088605       -0.0069890
             6   0      11.4595000        7.6595500        4.9659600          0.0033838       -0.0014961        0.0010503
             7   0      11.4595000        8.5531800        6.0695100         -0.0048406       -0.0048265       -0.0030951
             8   0      10.2298000        9.0000000        6.6212800         -0.0000381        0.0074040        0.0061349
             9   0      10.2298000        9.8936300        7.7248300         -0.0001252       -0.0083263       -0.0069857
             10   0      11.4595000       10.3405000        8.2766000         -0.0040582        0.0072739        0.0058081
             11   0      11.4595000       11.2341000        9.3801500          0.0034342       -0.0001867       -0.0033951
             12   0      10.2298000       11.6809000        9.9319300         -0.0005296       -0.0095568        0.0055775
             13   0      10.2298000       11.6809000       12.1390000         -0.0003713       -0.0106598       -0.0047185
             14   0      11.4595000       11.2341000       12.6908000          0.0023423        0.0032756       -0.0009343
             15   0      11.4595000       10.3405000       13.7943000         -0.0062378        0.0025402       -0.0004883
             16   0      10.2298000        9.8936300       14.3461000         -0.0002944       -0.0025310        0.0013704
             17   0       9.0000000        8.5531800        0.5517740          0.0040443       -0.0092933        0.0080218
             18   0       9.0000000        7.6595500        1.6553200         -0.0049381        0.0034329       -0.0070358
             19   0       9.0000000        7.6595500        4.9659600         -0.0032113       -0.0014159        0.0011979
             20   0       9.0000000        8.5531800        6.0695100          0.0047684       -0.0049604       -0.0032715
             21   0       9.0000000       10.3405000        8.2766000          0.0043179        0.0052497        0.0035882
             22   0       9.0000000       11.2341000        9.3801500         -0.0029696        0.0018913       -0.0009963
             23   0       9.0000000       11.2341000       12.6908000         -0.0019777        0.0058475       -0.0038253
             24   0       9.0000000       10.3405000       13.7943000          0.0067756       -0.0000776        0.0024233
             25   1      10.2298000        6.3191000        3.3106400          0.0000591       -0.0022363       -0.0009832
             26   1      10.2298000       12.5745000       11.0355000         -0.0000028        0.0034538        0.0009953
 Energy
         -4565.353832008362
 PlusStress:  xx          yy          zz          yz          xz          xy
             -0.0000220       -0.0000220        0.0003452        0.0000000       -0.0000000        0.0000000
END_CFG

BEGIN_CFG
 Size
    26
 SuperCell
         20.4595   0.0   0.0
         0.0   18.0   0.0
         0.0   0.0   15.6657
 AtomData:  id type	  cartes_x	cartes_y      cartes_z           fx          fy          fz
             1   0      10.2298000        9.0000000        0.0000000          0.0031853        0.0050016       -0.0050826
             2   0      11.4595000        8.5628800        0.5594880         -0.0039752        0.0008413       -0.0065861
             3   0      11.4595000        7.6886400        1.6784600          0.0007824       -0.0110941        0.0114046
             4   0      10.2298000        7.2515200        2.2379500          0.0019618        0.0142017        0.0058971
             5   0      10.2298000        7.2515200        4.4759000          0.0008719        0.0084522       -0.0134435
             6   0      11.4595000        7.6886400        5.0353900          0.0044398       -0.0026909       -0.0013701
             7   0      11.4595000        8.5628800        6.1543600         -0.0085273       -0.0014465        0.0036204
             8   0      10.2298000        9.0000000        6.7138500          0.0009886       -0.0161447       -0.0173385
             9   0      10.2298000        9.8742400        7.8328300          0.0020343        0.0168461        0.0176429
             10   0      11.4595000       10.3114000        8.3923100         -0.0095396       -0.0032537       -0.0089896
             11   0      11.4595000       11.1856000        9.5112900          0.0032591        0.0075292        0.0069908
             12   0      10.2298000       11.6227000       10.0708000          0.0016283       -0.0100525        0.0115946
             13   0      10.2298000       11.6227000       12.3087000          0.0027202       -0.0133268       -0.0070363
             14   0      11.4595000       11.1856000       12.8682000          0.0012526        0.0111061       -0.0110455
             15   0      11.4595000       10.3114000       13.9872000         -0.0035296       -0.0007438        0.0061640
             16   0      10.2298000        9.8742400       14.5467000          0.0038016       -0.0063743        0.0065339
             17   0       9.0000000        8.5628800        0.5594880          0.0005438       -0.0128092        0.0092480
             18   0       9.0000000        7.6886400        1.6784600         -0.0026104        0.0019602       -0.0041222
             19   0       9.0000000        7.6886400        5.0353900         -0.0052438        0.0014218        0.0035191
             20   0       9.0000000        8.5628800        6.1543600          0.0074261       -0.0055682       -0.0012259
             21   0       9.0000000       10.3114000        8.3923100          0.0072089        0.0059554        0.0017378
             22   0       9.0000000       11.1856000        9.5112900         -0.0047779       -0.0013835       -0.0035862
             23   0       9.0000000       11.1856000       12.8682000         -0.0037258       -0.0064779        0.0098579
             24   0       9.0000000       10.3114000       13.9872000         -0.0007911        0.0174038       -0.0148666
             25   1      10.2298000        6.3772800        3.3569300          0.0002165       -0.0040289        0.0027526
             26   1      10.2298000       12.4970000       11.1898000          0.0003998        0.0046758       -0.0022713
 Energy
         -4565.382442601585
 PlusStress:  xx          yy          zz          yz          xz          xy
             -0.0000220       -0.0000174        0.0003232        0.0000000       -0.0000000       -0.0000000
END_CFG

BEGIN_CFG
 Size
    26
 SuperCell
         20.4595   0.0   0.0
         0.0   18.0   0.0
         0.0   0.0   15.0036
 AtomData:  id type	  cartes_x	cartes_y      cartes_z           fx          fy          fz
             1   0      10.2298000        9.0000000        0.0000000          0.0018993        0.0002581       -0.0092292
             2   0      11.4595000        8.5342000        0.5358440         -0.0102042       -0.0041271       -0.0048491
             3   0      11.4595000        7.6025900        1.6075300          0.0065249       -0.0032926        0.0099826
             4   0      10.2298000        7.1367900        2.1433800          0.0014696        0.0074567        0.0076431
             5   0      10.2298000        7.1367900        4.2867500          0.0012742        0.0044292       -0.0110452
             6   0      11.4595000        7.6025900        4.8225900          0.0082100        0.0031306       -0.0030131
             7   0      11.4595000        8.5342000        5.8942800         -0.0105017       -0.0090567       -0.0003173
             8   0      10.2298000        9.0000000        6.4301300          0.0020152       -0.0049483        0.0047468
             9   0      10.2298000        9.9316000        7.5018100          0.0013249        0.0021762       -0.0074297
             10   0      11.4595000       10.3974000        8.0376600         -0.0086474        0.0114746        0.0026400
             11   0      11.4595000       11.3290000        9.1093400          0.0047123       -0.0016820        0.0050466
             12   0      10.2298000       11.7948000        9.6451900          0.0009467       -0.0118528        0.0006309
             13   0      10.2298000       11.7948000       11.7886000          0.0012501       -0.0161190        0.0041030
             14   0      11.4595000       11.3290000       12.3244000          0.0023132        0.0052661       -0.0129990
             15   0      11.4595000       10.3974000       13.3961000         -0.0080756        0.0067219        0.0026236
             16   0      10.2298000        9.9316000       13.9319000          0.0019492       -0.0037836        0.0128771
             17   0       9.0000000        8.5342000        0.5358440          0.0080851       -0.0094149        0.0005543
             18   0       9.0000000        7.6025900        1.6075300         -0.0078411        0.0014028        0.0050005
             19   0       9.0000000        7.6025900        4.8225900         -0.0093195        0.0076951        0.0017895
             20   0       9.0000000        8.5342000        5.8942800          0.0083157       -0.0141323       -0.0054865
             21   0       9.0000000       10.3974000        8.0376600          0.0072528        0.0150106        0.0062599
             22   0       9.0000000       11.3290000        9.1093400         -0.0055320       -0.0047740        0.0017939
             23   0       9.0000000       11.3290000       12.3244000         -0.0034674        0.0005764       -0.0080689
             24   0       9.0000000       10.3974000       13.3961000          0.0060375        0.0119189       -0.0026567
             25   1      10.2298000        6.2051900        3.2150600          0.0000198        0.0035682       -0.0000818
             26   1      10.2298000       12.7264000       10.7169000         -0.0000118        0.0020983       -0.0005150
 Energy
         -4565.288364820204
 PlusStress:  xx          yy          zz          yz          xz          xy
             -0.0000239       -0.0000257        0.0003884       -0.0000018       -0.0000000        0.0000000
END_CFG

BEGIN_CFG
 Size
    26
 SuperCell
         20.4595   0.0   0.0
         0.0   18.0   0.0
         0.0   0.0   14.0573
 AtomData:  id type	  cartes_x	cartes_y      cartes_z           fx          fy          fz
             1   0      10.2298000        9.0000000        0.0000000         -0.0006883        0.0062398        0.0034072
             2   0      11.4595000        8.4979500        0.5020460          0.0015195        0.0033589        0.0023641
             3   0      11.4595000        7.4938600        1.5061400         -0.0000730       -0.0047411       -0.0055729
             4   0      10.2298000        6.9918200        2.0081800         -0.0026269        0.0006399        0.0028683
             5   0      10.2298000        6.9918200        4.0163700         -0.0006801        0.0003654       -0.0035821
             6   0      11.4595000        7.4938600        4.5184100         -0.0003695       -0.0041068        0.0064512