BEGIN_CFG
 Size
    224
 SuperCell
         47.51409974035228   0.0   0.0
         0.0   18.000003975136355   0.0
         0.0   0.0   18.366717796932395
 AtomData:  id type	  cartes_x	cartes_y      cartes_z           fx          fy          fz
             1   0      37.2844000        9.0000000        0.0000000          0.5064757        0.0044768        0.0264389
             2   0      38.3592329        8.6718710        0.7899875          0.0102734        0.0123860       -0.0001723
             3   0      38.4350596        8.1937858        1.9427654         -0.0152572        0.0012773       -0.0111568
             4   0      37.3322655        7.9227272        2.7176254         -0.0025660        0.0008282        0.0021685
             5   0      37.3424017        7.9296232        5.1440051         -0.0018265        0.0011737        0.0008636
             6   0      38.4486747        8.2067467        5.9107057         -0.0025133        0.0048964       -0.0098309
             7   0      38.3921159        8.6921229        7.0618318          0.0069080        0.0041264        0.0017093
             8   0      37.3261240        9.0188999        7.8611774          0.0033784        0.0057480        0.0087579
             9   0      37.3266108        9.5266283        9.1903782          0.0014483       -0.0120348       -0.0042781
             10   0      38.3933814        9.8518027        9.9893020          0.0037754       -0.0070006       -0.0057665
             11   0      38.4503917       10.3341524       11.1416138         -0.0010565        0.0025400        0.0151543
             12   0      37.3449307       10.6115831       11.9092055          0.0029588       -0.0034018        0.0009284
             13   0      37.3385001       10.6073741       14.3330621         -0.0036687       -0.0022446       -0.0016931
             14   0      38.4403177       10.3236149       15.1038555         -0.0048038       -0.0141866       -0.0049995
             15   0      38.3761844        9.8329516       16.2525923          0.0058295        0.0018813       -0.0003967
             16   0      37.3010183        9.5108886       17.0417932          0.0030450       -0.0066959       -0.0002201
             17   0      34.8417447        9.0222721        0.0216914         -0.0016416        0.0014210       -0.0018982
             18   0      36.0645140        8.7565127        0.7076106         -0.0052145       -0.0029563       -0.0040222
             19   0      36.0834349        8.2418143        2.0574690          0.0030727       -0.0057009       -0.0000612
             20   0      34.8404015        8.0533045        2.6986683         -0.0053934        0.0000131       -0.0033555
             21   0      34.8502855        8.0569594        5.1759026          0.0004705       -0.0008577       -0.0023626
             22   0      36.0979282        8.2501159        5.8122228          0.0000738       -0.0040683        0.0006286
             23   0      36.0913661        8.7687297        7.1618577         -0.0023955        0.0024418        0.0002144
             24   0      34.8626936        9.0287560        7.8467685         -0.0025685        0.0035808        0.0041834
             25   0      34.8630684        9.5157266        9.2071670         -0.0016782        0.0000293       -0.0018057
             26   0      36.0922444        9.7749971        9.8914604         -0.0019049        0.0030776       -0.0001260
             27   0      36.0996954       10.2919995       11.2418741          0.0041436        0.0112059       -0.0036247
             28   0      34.8524514       10.4866412       11.8789450         -0.0003672        0.0019705       -0.0007742
             29   0      34.8451542       10.4873475       14.3562099         -0.0033640       -0.0060362       -0.0015396
             30   0      36.0895575       10.2900604       14.9943860         -0.0014223        0.0029627        0.0031743
             31   0      36.0741436        9.7683742       16.3411430         -0.0021770       -0.0008551        0.0021546
             32   0      34.8467929        9.5098349       17.0278498         -0.0039976        0.0033694        0.0035412
             33   0      32.3827605        9.0361578        0.0188985         -0.0099291       -0.0074950        0.0012285
             34   0      33.6171567        8.7955162        0.6880177         -0.0075930       -0.0031355       -0.0015059
             35   0      33.6187474        8.3168917        2.0494966         -0.0029578        0.0044210       -0.0041636
             36   0      32.3783682        8.1175825        2.6935974          0.0022968       -0.0040978       -0.0029655
             37   0      32.3858765        8.1187895        5.1800763         -0.0002638       -0.0068857        0.0018640
             38   0      33.6286629        8.3197149        5.8236874         -0.0039184       -0.0008785        0.0036420
             39   0      33.6326521        8.7988446        7.1841884         -0.0035222       -0.0021739       -0.0017694
             40   0      32.3951823        9.0365887        7.8524464         -0.0061822       -0.0017329       -0.0041600
             41   0      32.3955039        9.5074130        9.2032296         -0.0079545        0.0069461        0.0017219
             42   0      33.6334101        9.7467893        9.8703364         -0.0040569       -0.0035427        0.0032039
             43   0      33.6301665       10.2268026       11.2306583         -0.0038559       -0.0094920        0.0014622
             44   0      32.3872840       10.4277817       11.8747465          0.0017144        0.0037469       -0.0035011
             45   0      32.3812957       10.4272355       14.3613611         -0.0021073        0.0065879       -0.0027357
             46   0      33.6224545       10.2262667       15.0048774         -0.0063007       -0.0085569       -0.0004222
             47   0      33.6209772        9.7446477       16.3648015         -0.0065141        0.0020451        0.0015959
             48   0      32.3846785        9.5067059       17.0342355         -0.0073624        0.0040865       -0.0021698
             49   0      29.9176381        9.0397215        0.0198509         -0.0034211        0.0023104        0.0012439
             50   0      31.1499482        8.8085031        0.6835955          0.0014498        0.0058074       -0.0009071
             51   0      31.1497515        8.3428400        2.0456137         -0.0056824        0.0006371        0.0032823
             52   0      29.9163040        8.1309614        2.6915996          0.0029195        0.0021932        0.0067869
             53   0      29.9217927        8.1309931        5.1800579         -0.0023238        0.0014565        0.0027884
             54   0      31.1567434        8.3431697        5.8265325         -0.0005276        0.0017093       -0.0003160
             55   0      31.1598481        8.8085149        7.1884350         -0.0035150        0.0060287        0.0033833
             56   0      29.9261154        9.0391175        7.8514967         -0.0008605       -0.0009881       -0.0018455
             57   0      29.9263930        9.5040141        9.2044317         -0.0035378        0.0018931       -0.0023901
             58   0      31.1602196        9.7353473        9.8674967          0.0002509       -0.0039806       -0.0080486
             59   0      31.1577096       10.2025272       11.2288813         -0.0048437       -0.0030635       -0.0027441
             60   0      29.9223468       10.4149916       11.8747227          0.0000879       -0.0041315       -0.0027290
             61   0      29.9177553       10.4149481       14.3627429         -0.0031874        0.0002553       -0.0035296
             62   0      31.1517238       10.2017563       15.0082540         -0.0023415        0.0035949       -0.0036304
             63   0      31.1516438        9.7353496       16.3699898         -0.0059596       -0.0026122       -0.0009037
             64   0      29.9183963        9.5044901       17.0335825          0.0049987        0.0047468       -0.0015470
             65   0      27.4496688        9.0418918        0.0214898          0.0048339       -0.0054890       -0.0053546
             66   0      28.6816739        8.8136876        0.6858149          0.0054011       -0.0087543        0.0002954
             67   0      28.6819596        8.3480307        2.0454223          0.0007580       -0.0011848        0.0049941
             68   0      27.4508428        8.1291680        2.6926465         -0.0027215       -0.0023819        0.0039060
             69   0      27.4547577        8.1283602        5.1786633         -0.0028658        0.0029915        0.0008770
             70   0      28.6871622        8.3469921        5.8258895          0.0076017        0.0017787       -0.0012547
             71   0      28.6888925        8.8124601        7.1855934         -0.0043917       -0.0040202        0.0026426
             72   0      27.4560939        9.0409228        7.8493671          0.0001280       -0.0037685        0.0061509
             73   0      27.4562743        9.5025993        9.2052687         -0.0017167        0.0027719       -0.0057752
             74   0      28.6890267        9.7311501        9.8695101         -0.0016494        0.0043015       -0.0025361
             75   0      28.6877287       10.1975331       11.2288184          0.0037921       -0.0018247        0.0023698
             76   0      27.4548646       10.4154548       11.8754386         -0.0013334        0.0005042        0.0011609
             77   0      27.4512336       10.4164261       14.3615129         -0.0004111       -0.0024477       -0.0027207
             78   0      28.6828401       10.1986789       15.0088979          0.0078342       -0.0054680       -0.0085996
             79   0      28.6825013        9.7321371       16.3681286         -0.0024243        0.0054119       -0.0002355
             80   0      27.4500814        9.5034370       17.0321873          0.0029701        0.0035885        0.0059544
             81   0      24.9822519        9.0406034        0.0212967          0.0069445       -0.0015005       -0.0019196
             82   0      26.2155430        8.8132637        0.6871610         -0.0018265       -0.0014583        0.0020960
             83   0      26.2160890        8.3459317        2.0467370         -0.0013053        0.0014228        0.0013254
             84   0      24.9836453        8.1243068        2.6931409         -0.0052199        0.0042757        0.0013586
             85   0      24.9863269        8.1247590        5.1784825          0.0036502        0.0021361       -0.0035083
             86   0      26.2200850        8.3457630        5.8243956         -0.0067229        0.0010511       -0.0020929
             87   0      26.2208362        8.8131985        7.1837966         -0.0006222       -0.0038536       -0.0006399
             88   0      24.9870860        9.0406953        7.8492139         -0.0075269       -0.0028925        0.0037672
             89   0      24.9870806        9.5025170        9.2048601         -0.0012192        0.0047036       -0.0015612
             90   0      26.2209207        9.7303280        9.8702995         -0.0050664        0.0040893        0.0029563
             91   0      26.2201792       10.1979538       11.2295309         -0.0032823       -0.0009035        0.0033787
             92   0      24.9865370       10.4192664       11.8753021         -0.0019756       -0.0034157        0.0055135
             93   0      24.9834557       10.4190060       14.3604131          0.0062259       -0.0009451        0.0015702
             94   0      26.2162845       10.1981488       15.0068888         -0.0050036        0.0016136       -0.0006569
             95   0      26.2157565        9.7309636       16.3664228          0.0044125        0.0028321       -0.0010495
             96   0      24.9825677        9.5029135       17.0322120         -0.0068037        0.0021422        0.0031676
             97   0      22.5154774        9.0408251        0.0216426          0.0030658       -0.0045691       -0.0024184
             98   0      23.7490930        8.8119856        0.6872882         -0.0037492        0.0001018       -0.0019828
             99   0      23.7496746        8.3431446        2.0471093          0.0007469        0.0112720        0.0004175
             100   0      22.5161291        8.1247239        2.6934408         -0.0074948        0.0029593       -0.0011261
             101   0      22.5180300        8.1248497        5.1786885         -0.0059508        0.0032841       -0.0036379
             102   0      23.7524550        8.3435710        5.8243683         -0.0053404        0.0104215       -0.0013383
             103   0      23.7527876        8.8123717        7.1839096         -0.0000280       -0.0004836        0.0014514
             104   0      22.5187874        9.0408111        7.8493320         -0.0022189       -0.0035751        0.0040369
             105   0      22.5188067        9.5024234        9.2050220         -0.0013017        0.0042508       -0.0014874
             106   0      23.7529248        9.7308934        9.8702574         -0.0058917        0.0021021        0.0010117
             107   0      23.7525281       10.2001029       11.2297112         -0.0018761       -0.0097800        0.0033838
             108   0      22.5182544       10.4188451       11.8758092         -0.0074922       -0.0027511        0.0012920
             109   0      22.5157214       10.4193790       14.3609926         -0.0020466       -0.0048242       -0.0020731
             110   0      23.7495308       10.2003747       15.0066981         -0.0027858       -0.0120451        0.0017684
             111   0      23.7491124        9.7314018       16.3664448          0.0030668       -0.0004186        0.0032213
             112   0      22.5156085        9.5026957       17.0323832         -0.0023898        0.0033843        0.0050278
             113   0      20.0474001        9.0410079        0.0220179         -0.0086063       -0.0033311       -0.0058415
             114   0      21.2822077        8.8133096        0.6876283          0.0005428       -0.0038435        0.0000962
             115   0      21.2829195        8.3460607        2.0472173         -0.0025966        0.0000085        0.0012694
             116   0      20.0481783        8.1285688        2.6930302         -0.0012388        0.0010986       -0.0004895
             117   0      20.0495108        8.1287591        5.1791769         -0.0051317       -0.0004479       -0.0029509
             118   0      21.2847292        8.3461359        5.8247193          0.0002605       -0.0001131       -0.0034322
             119   0      21.2847827        8.8134426        7.1840151         -0.0048172       -0.0043660       -0.0017460
             120   0      20.0495949        9.0411030        7.8494220         -0.0054556       -0.0040446        0.0049877
             121   0      20.0496491        9.5024148        9.2053243         -0.0081604        0.0033465       -0.0053299
             122   0      21.2848825        9.7299418        9.8706244         -0.0033355        0.0043125        0.0011647
             123   0      21.2849234       10.1973489       11.2299530         -0.0016658        0.0006335        0.0023258
             124   0      20.0496788       10.4148993       11.8755549         -0.0034335       -0.0003075        0.0023981
             125   0      20.0478428       10.4150024       14.3616531         -0.0031470        0.0003389       -0.0009752
             126   0      21.2825288       10.1977901       15.0073554          0.0042760       -0.0003000       -0.0014113
             127   0      21.2821696        9.7302991       16.3668513         -0.0037479        0.0044179       -0.0019155
             128   0      20.0473007        9.5024848       17.0326287         -0.0020196        0.0031427        0.0049651
             129   0      17.5777319        9.0395830        0.0206224         -0.0057130       -0.0028012        0.0003124
             130   0      18.8147449        8.8126079        0.6861740          0.0016499       -0.0043516       -0.0022258
             131   0      18.8160091        8.3467801        2.0457437         -0.0151001        0.0023739        0.0034815
             132   0      17.5810475        8.1306098        2.6916685         -0.0021196        0.0041233        0.0016380
             133   0      17.5819175        8.1307159        5.1803687         -0.0044354        0.0037533       -0.0031437
             134   0      18.8171574        8.3469817        5.8261979         -0.0092287        0.0014799       -0.0049761
             135   0      18.8165100        8.8128156        7.1856040         -0.0061331       -0.0052229        0.0006114
             136   0      17.5790999        9.0396070        7.8509176         -0.0018658       -0.0025822       -0.0003175
             137   0      17.5791626        9.5038176        9.2039133         -0.0052402        0.0024233        0.0007245
             138   0      18.8165154        9.7306678        9.8691990         -0.0009238        0.0052929       -0.0006366
             139   0      18.8173697       10.1965465       11.2286066         -0.0145586       -0.0011413        0.0048625
             140   0      17.5820573       10.4128262       11.8744591         -0.0026858       -0.0038703        0.0029578
             141   0      17.5808384       10.4129200       14.3631154         -0.0044801       -0.0045804       -0.0016309
             142   0      18.8156485       10.1965980       15.0089729         -0.0073130       -0.0015146       -0.0034903
             143   0      18.8146680        9.7307424       16.3685643         -0.0050458        0.0051751        0.0008030
             144   0      17.5775489        9.5037706       17.0341757          0.0014784        0.0028737       -0.0007325
             145   0      15.1087999        9.0368733        0.0197712          0.0056045       -0.0043922        0.0021520
             146   0      16.3439467        8.8092256        0.6838834         -0.0023199        0.0023721       -0.0037127
             147   0      16.3462069        8.3435391        2.0457355         -0.0028421        0.0017453        0.0013357
             148   0      15.1166115        8.1197545        2.6924727         -0.0072572       -0.0068306       -0.0017879
             149   0      15.1171125        8.1197118        5.1792936         -0.0044999       -0.0065303        0.0032668
             150   0      16.3469320        8.3435196        5.8260963         -0.0019252        0.0013467       -0.0025822
             151   0      16.3449742        8.8091752        7.1878914         -0.0024713        0.0025187        0.0027076
             152   0      15.1096578        9.0367527        7.8518954          0.0035661       -0.0046627       -0.0033100
             153   0      15.1096690        9.5065015        9.2030816          0.0052805        0.0043714        0.0025467
             154   0      16.3450342        9.7341435        9.8670319         -0.0022736       -0.0025968       -0.0034905
             155   0      16.3470878       10.1998616       11.2288058         -0.0034795       -0.0010765        0.0018515
             156   0      15.1172321       10.4236956       11.8755626         -0.0066748        0.0067103       -0.0027182
             157   0      15.1164878       10.4237436       14.3623668         -0.0054716        0.0066250        0.0029856
             158   0      16.3460311       10.1999101       15.0091309         -0.0023682       -0.0011668       -0.0029899
             159   0      16.3437548        9.7341517       16.3709862         -0.0003438       -0.0021785        0.0029444
             160   0      15.1086833        9.5065016       17.0351841          0.0049692        0.0050291       -0.0037484
             161   0      12.6421489        9.0289979        0.0245226         -0.0032944       -0.0025696       -0.0017350
             162   0      13.8713545        8.7988310        0.6879902         -0.0017499        0.0000399       -0.0010696
             163   0      13.8740324        8.3201224        2.0487526         -0.0004597        0.0032501       -0.0023063
             164   0      12.6517975        8.0580938        2.6967128         -0.0057667        0.0037304        0.0009742
             165   0      12.6521255        8.0580282        5.1749132         -0.0051553        0.0039356        0.0005800
             166   0      13.8744992        8.3199790        5.8229382         -0.0014848        0.0034761        0.0033594
             167   0      13.8719198        8.7986371        7.1837380          0.0021178        0.0005206        0.0008094
             168   0      12.6426260        9.0288507        7.8471151         -0.0036929       -0.0025888        0.0016144
             169   0      12.6426192        9.5144089        9.2078163         -0.0014110        0.0027809       -0.0015213
             170   0      13.8719585        9.7445979        9.8712168         -0.0002687       -0.0004749       -0.0014637
             171   0      13.8745477       10.2233588       11.2319584          0.0003342       -0.0036319       -0.0026436
             172   0      12.6521554       10.4852948       11.8799466         -0.0053191       -0.0034908       -0.0002725
             173   0      12.6517878       10.4853387       14.3581302         -0.0060735       -0.0037003        0.0001396
             174   0      13.8739941       10.2233490       15.0061473         -0.0030457       -0.0034011        0.0024258
             175   0      13.8711834        9.7446085       16.3669458          0.0039011       -0.0001597        0.0008292
             176   0      12.6420778        9.5144306       17.0304468         -0.0032231        0.0028917        0.0017365
             177   0      10.1795055        9.0184792        0.0085501         -0.0113501       -0.0017975        0.0012902
             178   0      11.4133763        8.7694156        0.7090750         -0.0024518       -0.0051407       -0.0050507
             179   0      11.4052738        8.2505370        2.0581761         -0.0086885       -0.0019916        0.0001260
             180   0      10.1598714        7.9291642        2.7239898         -0.0014956        0.0013992        0.0071762
             181   0      10.1601003        7.9291801        5.1476230         -0.0007685        0.0012766       -0.0084090
             182   0      11.4055714        8.2504476        5.8134535         -0.0074413       -0.0014745        0.0011652
             183   0      11.4136972        8.7693005        7.1625976         -0.0000730       -0.0052235        0.0038731
             184   0      10.1797399        9.0184818        7.8630177         -0.0089752       -0.0007019        0.0003643
             185   0      10.1797500        9.5249748        9.1917916         -0.0107632        0.0021906        0.0033016
             186   0      11.4137090        9.7740685        9.8922762         -0.0021335        0.0044871       -0.0052672
             187   0      11.4055820       10.2928966       11.2414053         -0.0076830        0.0019990        0.0002684
             188   0      10.1601142       10.6141917       11.9072510         -0.0013635       -0.0010547        0.0072575
             189   0      10.1599134       10.6142043       14.3309082         -0.0012940       -0.0010894       -0.0072387
             190   0      11.4053052       10.2929091       14.9967269         -0.0090593        0.0014288        0.0010009
             191   0      11.4133505        9.7740604       16.3458837         -0.0015352        0.0048743        0.0049152
             192   0      10.1795436        9.5249275       17.0464505         -0.0119163        0.0014123       -0.0005374
             193   0       9.1121237        8.6918267        0.8058016         -0.0076254        0.0046910        0.0011735
             194   0       9.0542541        8.2070566        1.9570834         -0.0036918        0.0037188        0.0083689
             195   0       9.0544590        8.2071788        5.9143468         -0.0041348        0.0088371        0.0037052
             196   0       9.1123866        8.6920719        7.0657381         -0.0093555       -0.0004242       -0.0124148
             197   0       9.1123428        9.8515365        9.9891509         -0.0051304       -0.0070584       -0.0060822
             198   0       9.0544980       10.3363955       11.1403123         -0.0033062       -0.0023682        0.0127918
             199   0       9.0544031       10.3363872       15.0978883         -0.0058590       -0.0071227       -0.0011249
             200   0       9.1121893        9.8514564       16.2492049         -0.0100114       -0.0007716       -0.0092174
             201   1      37.3955158        7.2940905        3.9324847         -0.0100322       -0.0141056        0.0037304
             202   1      34.8538020        7.4734432        3.9379328         -0.0075503        0.0004260       -0.0028316
             203   1      32.3798104        7.5700578        3.9369553          0.0118651        0.0060930       -0.0006587
             204   1      29.9184158        7.5851907        3.9357224         -0.0040168       -0.0090981        0.0033239
             205   1      27.4544105        7.5732208        3.9353965         -0.0094138       -0.0075889        0.0041786
             206   1      24.9854513        7.5663232        3.9358715          0.0005530       -0.0034766       -0.0025850
             207   1      22.5156756        7.5665842        3.9360701          0.0058439       -0.0035677       -0.0020204
             208   1      20.0472101        7.5734711        3.9361287          0.0078527       -0.0091562       -0.0021145
             209   1      17.5828645        7.5850505        3.9360162         -0.0033525       -0.0083936       -0.0003402
             210   1      15.1197947        7.5722573        3.9358651         -0.0167309        0.0035168       -0.0000188
             211   1      12.6447900        7.4767999        3.9357857         -0.0000890        0.0016895        0.0005278
             212   1      10.1056120        7.2937468        3.9357956          0.0090873       -0.0175802       -0.0003353
             213   1      37.3994010       11.2449396       13.1223464         -0.0075752        0.0095013       -0.0003900
             214   1      34.8567125       11.0690465       13.1175844         -0.0015326        0.0027796       -0.0000404
             215   1      32.3818914       10.9755693       13.1182216          0.0114561       -0.0019692       -0.0024780
             216   1      29.9181234       10.9616149       13.1188333          0.0037806        0.0066442       -0.0064956
             217   1      27.4537592       10.9708541       13.1183196         -0.0054854        0.0143110        0.0003759
             218   1      24.9853997       10.9775696       13.1179374         -0.0011076        0.0028344        0.0022939
             219   1      22.5157707       10.9775720       13.1183087          0.0042775        0.0018124        0.0007456
             220   1      20.0473517       10.9703017       13.1186058          0.0062840        0.0080820        0.0004134
             221   1      17.5829663       10.9586295       13.1187847         -0.0042806        0.0076007        0.0011850
             222   1      15.1198402       10.9712561       13.1189789         -0.0171845       -0.0038567       -0.0002396
             223   1      12.6447854       11.0666015       13.1190433         -0.0002147       -0.0018738       -0.0000586
             224   1      10.1055673       11.2495746       13.1191032          0.0089482        0.0177092       -0.0010428
 Energy
         -41510.00996501393
 PlusStress:  xx          yy          zz          yz          xz          xy
              0.0004756       -0.0000689       -0.0002883       -0.0000000        0.0000037       -0.0000055
END_CFG

BEGIN_CFG
 Size
    224
 SuperCell
         47.51409974035228   0.0   0.0
         0.0   18.000003975136355   0.0
         0.0   0.0   19.577994741613196
 AtomData:  id type	  cartes_x	cartes_y      cartes_z           fx          fy          fz
             1   0      37.2844000        9.0000000        0.0000000          0.2286269        0.0335611        0.0365919
             2   0      38.3585782        8.8791201        0.8559717         -0.0063786       -0.0001062        0.0103479
             3   0      38.4201674        8.6606934        2.0835611          0.0049705        0.0120747       -0.0002856
             4   0      37.3263532        8.5545210        2.9189952          0.0003278        0.0004121        0.0024248
             5   0      37.3300769        8.5750226        5.4604332          0.0057711        0.0041513       -0.0074675
             6   0      38.4275371        8.7061122        6.2875698         -0.0015337        0.0124629       -0.0063468
             7   0      38.3727732        8.9378419        7.5131819         -0.0095349        0.0077678        0.0050340
             8   0      37.3035755        9.0545220        8.3746295         -0.0017568       -0.0048805        0.0039140
             9   0      37.3039045        9.2032354        9.7962881         -0.0025076       -0.0035142        0.0011310
             10   0      38.3732242        9.3152592       10.6578388         -0.0051314       -0.0108603        0.0076339
             11   0      38.4296323        9.5363474       11.8856275         -0.0013105       -0.0089464       -0.0097738
             12   0      37.3324416        9.6618878       12.7136033          0.0020885        0.0042282       -0.0012328
             13   0      37.3287244        9.6472852       15.2505465          0.0051080       -0.0122066       -0.0064344