BEGIN_CFG
 Size
    62
 SuperCell
         25.378499637583392   0.0   0.0
         0.0   18.00000540995167   0.0
         0.0   0.0   14.057303220255266
 AtomData:  id type	  cartes_x	cartes_y      cartes_z           fx          fy          fz
             1   0      15.1488000        9.0000000        0.0000000          0.0223673       -0.0703626       -0.1102744
             2   0      16.2253197        8.3065241        0.5015567          0.0109501        0.0100895        0.0079553
             3   0      16.2884665        7.3869056        1.3456209          0.0009040        0.0032527        0.0139886
             4   0      15.1811497        6.8219554        1.9342388          0.0007767        0.0006055        0.0036913
             5   0      15.1797114        6.7961177        4.1184462         -0.0058711       -0.0136186        0.0082941
             6   0      16.2856228        7.3366374        4.7315499         -0.0000208       -0.0132142        0.0048501
             7   0      16.2233484        8.2379420        5.5956084          0.0070752       -0.0081784       -0.0034967
             8   0      15.1487143        8.9337636        6.0978125          0.0096368        0.0074889       -0.0019756
             9   0      15.1499968       10.0642283        6.9518084          0.0092120       -0.0037937        0.0020728
             10   0      16.2255996       10.7592459        7.4531955         -0.0074076       -0.0088544       -0.0061460
             11   0      16.2883305       11.6578528        8.3201266         -0.0031015        0.0170022        0.0189297
             12   0      15.1839619       12.1925487        8.9401446         -0.0020407        0.0057310        0.0109334
             13   0      15.1825934       12.1990259       11.1453651         -0.0025302        0.0165944        0.0069847
             14   0      16.2864719       11.6743446       11.7746215          0.0000062        0.0131705        0.0078334
             15   0      16.2230191       10.7953243       12.6616122         -0.0011907        0.0231080        0.0037088
             16   0      15.1480917       10.1136135       13.1813697          0.0064882       -0.0090534       -0.0030514
             17   0      12.6875853        8.9649138       -0.0148094         -0.0063095        0.0053345        0.0092436
             18   0      13.9150176        8.4161968        0.4614945          0.0042079        0.0067322       -0.0013470
             19   0      13.9274895        7.3426518        1.4293057          0.0004728        0.0059866        0.0016717
             20   0      12.6872307        6.8821672        1.9274399         -0.0020481        0.0070968        0.0084944
             21   0      12.6858982        6.8711885        4.1112039         -0.0013935        0.0014506       -0.0033062
             22   0      13.9255174        7.3153948        4.6249374          0.0001823       -0.0013020        0.0100520
             23   0      13.9136092        8.3739586        5.6094779          0.0059264        0.0058379        0.0017139
             24   0      12.6867630        8.9404312        6.0665066         -0.0002988        0.0035219       -0.0054932
             25   0      12.6879572       10.0589785        6.9863573          0.0006194       -0.0016843        0.0063589
             26   0      13.9156999       10.6230289        7.4435330         -0.0005027       -0.0097905        0.0058356
             27   0      13.9288859       11.6774952        8.4324131          0.0048393       -0.0032211        0.0044909
             28   0      12.6900780       12.1244175        8.9462150          0.0005572       -0.0065501        0.0012048
             29   0      12.6886078       12.1283199       11.1408796          0.0018990        0.0019106       -0.0078349
             30   0      13.9275442       11.6881850       11.6589553          0.0005011        0.0025063        0.0070572
             31   0      13.9139948       10.6503443       12.6655413          0.0053507       -0.0067126        0.0010338
             32   0      12.6872374       10.0793943       13.1174582         -0.0015905        0.0022070       -0.0040752
             33   0      10.2258056        8.9364355       -0.0736370         -0.0043112        0.0050460        0.0124215
             34   0      11.4608337        8.3861488        0.4270582         -0.0022024        0.0064275        0.0087330
             35   0      11.4483496        7.3273719        1.4122752         -0.0013596        0.0038986       -0.0031285
             36   0      10.1942020        6.8039420        1.9146001          0.0015853       -0.0076243        0.0027202
             37   0      10.1920312        6.8040440        4.1129610          0.0048686       -0.0037798       -0.0087536
             38   0      11.4461376        7.3203334        4.6217588         -0.0012850        0.0003630        0.0057495
             39   0      11.4589013        8.3769172        5.6084772          0.0016486        0.0038492       -0.0009253
             40   0      10.2246052        8.9372732        6.0987691         -0.0057516        0.0084237       -0.0020368
             41   0      10.2259727       10.0667725        6.9548044         -0.0114928       -0.0043806        0.0017072
             42   0      11.4614824       10.6247188        7.4451311         -0.0115692       -0.0119114        0.0017962
             43   0      11.4503215       11.6804562        8.4332358         -0.0057891       -0.0061282        0.0000198
             44   0      10.1962908       12.1989595        8.9417299          0.0011405        0.0040904       -0.0007117
             45   0      10.1946993       12.1985176       11.1409543          0.0046678        0.0064378       -0.0039531
             46   0      11.4484880       11.6837630       11.6532208         -0.0009441        0.0030918       -0.0013087
             47   0      11.4598197       10.6309753       12.6443092         -0.0034841       -0.0030861        0.0012017
             48   0      10.2246131       10.0660740       13.1276548         -0.0091958        0.0022420        0.0002391
             49   0       9.1534418        8.2352033        0.4252240         -0.0113661       -0.0071533        0.0067941
             50   0       9.0900004        7.3356791        1.2913979         -0.0018383        0.0012987       -0.0078159
             51   0       9.0872093        7.3426624        4.7294654         -0.0006207        0.0088125        0.0051060
             52   0       9.1497466        8.2433959        5.5946209         -0.0035656       -0.0189249       -0.0165253
             53   0       9.1521667       10.7631010        7.4581990          0.0037086       -0.0145782       -0.0129159
             54   0       9.0912938       11.6622584        8.3244517          0.0006119        0.0253896        0.0218153
             55   0       9.0888568       11.6586651       11.7540408          0.0032872        0.0097743       -0.0160841
             56   0       9.1505681       10.7587614       12.6196823          0.0024868       -0.0177301        0.0115283
             57   1      15.2257540        5.9540499        3.0160982         -0.0060331       -0.0032635        0.0050322
             58   1      12.6850130        6.0027064        3.0150198          0.0019427        0.0060498       -0.0027956
             59   1      10.1446196        5.9585818        3.0137964         -0.0039914       -0.0023119       -0.0012910
             60   1      15.2326564       13.0351470       10.0402111          0.0029416        0.0161355        0.0034638
             61   1      12.6908467       12.9923565       10.0419815         -0.0018327        0.0023549       -0.0078434
             62   1      10.1492128       13.0432546       10.0414515          0.0000766        0.0038955       -0.0016391
 Energy
         -11282.539802289284
 PlusStress:  xx          yy          zz          yz          xz          xy
             -0.0000101       -0.0000055        0.0010026        0.0000073        0.0000073        0.0000028
END_CFG

BEGIN_CFG
 Size
    62
 SuperCell
         25.378499637583392   0.0   0.0
         0.0   18.00000540995167   0.0
         0.0   0.0   15.229003170022855
 AtomData:  id type	  cartes_x	cartes_y      cartes_z           fx          fy          fz
             1   0      15.1488000        9.0000000        0.0000000          0.0465478       -0.0488139       -0.0662674
             2   0      16.2142092        8.3661229        0.5790668         -0.0100746        0.0009382        0.0088415
             3   0      16.2813124        7.5280451        1.5082219         -0.0047645        0.0120078        0.0034633
             4   0      15.1813888        7.0244638        2.1489696         -0.0074225        0.0020489       -0.0006273
             5   0      15.1806848        6.9961735        4.4010624         -0.0020718       -0.0060668       -0.0013629
             6   0      16.2796096        7.4736983        5.0622862          0.0003389        0.0066342        0.0063540
             7   0      16.2140262        8.2987006        6.0033771         -0.0028958       -0.0107333       -0.0018263
             8   0      15.1513452        8.9400575        6.5783608         -0.0023574       -0.0033453       -0.0023610
             9   0      15.1512634        9.9680578        7.5596115          0.0033712        0.0086749        0.0077385
             10   0      16.2135764       10.6093670        8.1349226          0.0006513        0.0009295       -0.0016542
             11   0      16.2801627       11.4323612        9.0775879          0.0005294       -0.0025513        0.0119878
             12   0      15.1830776       11.9048743        9.7451127         -0.0070183        0.0003813       -0.0021034
             13   0      15.1814718       11.9137780       12.0152194          0.0050944        0.0068798        0.0022309
             14   0      16.2786482       11.4499232       12.6888000         -0.0028138        0.0120073        0.0052283
             15   0      16.2112170       10.6446308       13.6465093          0.0026508        0.0035168        0.0059346
             16   0      15.1488424       10.0131639       14.2321771         -0.0084715        0.0051718        0.0018612
             17   0      12.6862260        8.9738524        0.0018995         -0.0090189        0.0064247        0.0012030
             18   0      13.9100780        8.4787993        0.5316060         -0.0001100       -0.0055646        0.0040559
             19   0      13.9234212        7.5079144        1.6051958         -0.0094660        0.0013280       -0.0012066
             20   0      12.6866536        7.0873162        2.1343305          0.0039860        0.0002263        0.0100227
             21   0      12.6869478        7.0754969        4.4014025         -0.0009837        0.0025369       -0.0045668
             22   0      13.9228235        7.4802280        4.9443382          0.0001334       -0.0019908        0.0027868
             23   0      13.9109472        8.4391048        6.0286506         -0.0032645       -0.0041978        0.0007608
             24   0      12.6873319        8.9492288        6.5446702         -0.0006050        0.0020312       -0.0034414
             25   0      12.6874831        9.9601141        7.5946377          0.0018008       -0.0051985        0.0091493
             26   0      13.9114840       10.4679183        8.1119609          0.0013791        0.0027120        0.0002227
             27   0      13.9245872       11.4236761        9.1994205         -0.0037890        0.0011115        0.0012776
             28   0      12.6886562       11.8306319        9.7399549         -0.0029815       -0.0029321        0.0138708
             29   0      12.6875123       11.8368434       12.0164595         -0.0061938       -0.0062766        0.0032365
             30   0      13.9226824       11.4368876       12.5639408          0.0018489        0.0069908       -0.0023919
             31   0      13.9095511       10.4951841       13.6639513         -0.0071461        0.0047776       -0.0029529
             32   0      12.6860249        9.9817311       14.1774121          0.0075284       -0.0054096       -0.0071559
             33   0      10.2229267        8.9438672       -0.0514499          0.0028002        0.0133736       -0.0105058
             34   0      11.4630739        8.4522093        0.5075260         -0.0017939       -0.0017522        0.0003160
             35   0      11.4509150        7.4918800        1.5913853         -0.0020718        0.0054176       -0.0041577
             36   0      10.1925366        7.0033458        2.1311378          0.0039582       -0.0023978       -0.0058829
             37   0      10.1926234        7.0037079        4.3940735          0.0042256       -0.0094519        0.0000231
             38   0      11.4508702        7.4843228        4.9405624         -0.0030398        0.0013087        0.0018499
             39   0      11.4634548        8.4413206        6.0270359         -0.0012485       -0.0028130       -0.0009058
             40   0      10.2235054        8.9420335        6.5783174         -0.0037847       -0.0044143       -0.0017049
             41   0      10.2235700        9.9688673        7.5612999          0.0072351        0.0009572       -0.0001098
             42   0      11.4639737       10.4687645        8.1122734          0.0018147        0.0065239        0.0033409
             43   0      11.4522404       11.4257868        9.1988026          0.0051517        0.0008320        0.0033710
             44   0      10.1944893       11.9092797        9.7442146         -0.0018972       -0.0007621       -0.0013624
             45   0      10.1932187       11.9100034       12.0091237          0.0015326       -0.0017226        0.0006970
             46   0      11.4509893       11.4315011       12.5580166          0.0063195       -0.0003234        0.0023520
             47   0      11.4625586       10.4781535       13.6483462          0.0019049        0.0061568        0.0029619
             48   0      10.2224765        9.9712136       14.1943471          0.0034417        0.0028452        0.0032784
             49   0       9.1608872        8.2970893        0.5187105          0.0075125        0.0006479        0.0010017
             50   0       9.0957960        7.4738257        1.4611952          0.0027326       -0.0050394        0.0117993
             51   0       9.0949592        7.4791692        5.0586431         -0.0040531        0.0060773       -0.0048704
             52   0       9.1612618        8.3017318        6.0015860         -0.0005273        0.0049607        0.0024508
             53   0       9.1623390       10.6103653        8.1380081         -0.0081743        0.0077262        0.0032188
             54   0       9.0963350       11.4343156        9.0800668          0.0011701       -0.0093349       -0.0019869
             55   0       9.0952439       11.4314673       12.6710152         -0.0033769       -0.0151703       -0.0017519
             56   0       9.1603748       10.6075457       13.6132867         -0.0050458        0.0148152       -0.0105274
             57   1      15.2298667        6.2094247        3.2651111         -0.0047478        0.0061118       -0.0046876
             58   1      12.6857104        6.2718031        3.2636283         -0.0046424        0.0033635        0.0057855
             59   1      10.1387705        6.2110631        3.2626358          0.0134978        0.0050612       -0.0025007
             60   1      15.2373316       12.6952268       10.8770740         -0.0170261       -0.0026264       -0.0043691
             61   1      12.6893269       12.6356962       10.8758844         -0.0012107       -0.0080956        0.0094298
             62   1      10.1419126       12.7004160       10.8763595          0.0149319       -0.0065234        0.0011393
 Energy
         -11283.059006377993
 PlusStress:  xx          yy          zz          yz          xz          xy
             -0.0000679       -0.0000514        0.0008208        0.0000156       -0.0000000       -0.0000018
END_CFG

BEGIN_CFG
 Size
    62
 SuperCell
         25.378499637583392   0.0   0.0
         0.0   18.00000540995167   0.0
         0.0   0.0   14.300505382282228
 AtomData:  id type	  cartes_x	cartes_y      cartes_z           fx          fy          fz
             1   0      15.1488000        9.0000000        0.0000000          0.0222092       -0.0665494       -0.0831166
             2   0      16.2209759        8.3152602        0.5156803          0.0083304        0.0097908        0.0026104
             3   0      16.2863239        7.4105815        1.3773034         -0.0044115        0.0042171        0.0071320
             4   0      15.1815803        6.8586624        1.9773075         -0.0049766        0.0062516        0.0108452
             5   0      15.1805810        6.8301212        4.1812660         -0.0057670       -0.0042436        0.0061966
             6   0      16.2829950        7.3562451        4.8077335         -0.0038353       -0.0233482       -0.0038646
             7   0      16.2194369        8.2426789        5.6885653          0.0079445       -0.0080072       -0.0106775
             8   0      15.1487122        8.9326992        6.1998737          0.0103639        0.0026372        0.0017622
             9   0      15.1500131       10.0474969        7.0766505          0.0045850       -0.0040711       -0.0042009
             10   0      16.2213030       10.7370930        7.5872655         -0.0031779       -0.0001244        0.0093143
             11   0      16.2856290       11.6209841        8.4709747         -0.0058063        0.0110601        0.0079851
             12   0      15.1843639       12.1406450        9.1036973         -0.0010531       -0.0035132        0.0200279
             13   0      15.1828482       12.1478142       11.3301636         -0.0057935        0.0156837       -0.0030154
             14   0      16.2836536       11.6394007       11.9725975         -0.0052029        0.0187361        0.0086952
             15   0      16.2187339       10.7759731       12.8762488         -0.0029786        0.0130856       -0.0037163
             16   0      15.1479775       10.0984617       13.4034627          0.0080519       -0.0032147       -0.0028686
             17   0      12.6869417        8.9676850       -0.0089188         -0.0066702       -0.0013401       -0.0085674
             18   0      13.9131990        8.4281750        0.4767196          0.0012863       -0.0022888       -0.0087744
             19   0      13.9259013        7.3723499        1.4647564         -0.0005201        0.0058655        0.0042796
             20   0      12.6867502        6.9179956        1.9673638          0.0012413        0.0129944       -0.0003877
             21   0      12.6862278        6.9054118        4.1748304         -0.0098769        0.0141614        0.0070654
             22   0      13.9243716        7.3426155        4.6942617         -0.0008048        0.0039227        0.0060521
             23   0      13.9121861        8.3840015        5.6979206          0.0019425       -0.0000607        0.0094730
             24   0      12.6867488        8.9410082        6.1654000          0.0086957       -0.0018831        0.0069345
             25   0      12.6880921       10.0403535        7.1132104         -0.0096203        0.0048128       -0.0042814
             26   0      13.9140349       10.5947328        7.5815516          0.0054492        0.0012367       -0.0023011
             27   0      13.9274376       11.6320635        8.5892880          0.0002075       -0.0072706        0.0051741
             28   0      12.6899108       12.0719518        9.1079359         -0.0000550       -0.0083206       -0.0061146
             29   0      12.6881416       12.0772791       11.3268517         -0.0055605       -0.0043328       -0.0010153
             30   0      13.9255014       11.6441932       11.8504188          0.0115826        0.0002003        0.0052751
             31   0      13.9122114       10.6238093       12.8756017         -0.0057176        0.0012202        0.0073809
             32   0      12.6865495       10.0630048       13.3388439          0.0111969        0.0065206        0.0016918
             33   0      10.2248804        8.9365840       -0.0708786         -0.0045647       -0.0015051        0.0113039
             34   0      11.4614745        8.3981987        0.4436245          0.0019551       -0.0001890       -0.0039047
             35   0      11.4490715        7.3559362        1.4470729         -0.0009958        0.0032995        0.0054402
             36   0      10.1929619        6.8380939        1.9558127          0.0018077        0.0109030        0.0056400
             37   0      10.1915652        6.8386708        4.1746876          0.0012976        0.0061208       -0.0147558
             38   0      11.4477283        7.3480095        4.6903913          0.0025341       -0.0001959       -0.0014282
             39   0      11.4606792        8.3871716        5.6963031         -0.0071847       -0.0038060        0.0091665
             40   0      10.2246658        8.9358631        6.2002823         -0.0056765       -0.0020142       -0.0067057
             41   0      10.2261058       10.0492949        7.0792913         -0.0142560        0.0030234        0.0011511
             42   0      11.4629841       10.5966021        7.5824537         -0.0042290       -0.0039122       -0.0014054
             43   0      11.4515433       11.6354391        8.5894136         -0.0045020       -0.0127077        0.0011367
             44   0      10.1954699       12.1475530        9.1043033          0.0074238       -0.0017903        0.0127540
             45   0      10.1933302       12.1476266       11.3242855          0.0102268       -0.0030840       -0.0108292
             46   0      11.4490349       11.6399544       11.8440758          0.0095874       -0.0003276       -0.0038718
             47   0      11.4609426       10.6045799       12.8544892         -0.0132759        0.0057027        0.0070608
             48   0      10.2239029       10.0502131       13.3503614         -0.0105392        0.0072629        0.0076853
             49   0       9.1564257        8.2403934        0.4370163         -0.0030267        0.0073881       -0.0007400
             50   0       9.0922251        7.3554854        1.3194048          0.0059981       -0.0197013        0.0105325
             51   0       9.0896200        7.3624183        4.8039687          0.0078496       -0.0050216       -0.0066273
             52   0       9.1539185        8.2480701        5.6857906          0.0012845       -0.0036998       -0.0072397
             53   0       9.1564135       10.7395737        7.5924302         -0.0019535        0.0072793        0.0108935
             54   0       9.0939351       11.6249686        8.4748122         -0.0029683        0.0046303       -0.0019358
             55   0       9.0906516       11.6217400       11.9495741          0.0059472        0.0055438       -0.0079357
             56   0       9.1540610       10.7367453       12.8321969          0.0019026       -0.0131149       -0.0001080
             57   1      15.2278204        6.0044579        3.0684577         -0.0029197       -0.0068003        0.0031231
             58   1      12.6849784        6.0547631        3.0662248         -0.0010405        0.0120320        0.0032594
             59   1      10.1416767        6.0089933        3.0654068         -0.0060154       -0.0130393       -0.0053584
             60   1      15.2355367       12.9667907       10.2141481          0.0008760        0.0233965        0.0035096
             61   1      12.6906030       12.9228753       10.2152901          0.0000329       -0.0052065       -0.0053374
             62   1      10.1458687       12.9761471       10.2141697          0.0031663        0.0057055        0.0005330
 Energy
         -11282.652773886883
 PlusStress:  xx          yy          zz          yz          xz          xy
             -0.0000376       -0.0000257        0.0009778        0.0000083       -0.0000037        0.0000073
END_CFG

BEGIN_CFG
 Size
    62
 SuperCell
         25.378499637583392   0.0   0.0
         0.0   18.00000540995167   0.0
         0.0   0.0   17.868011833336602
 AtomData:  id type	  cartes_x	cartes_y      cartes_z           fx          fy          fz
             1   0      15.1488000        9.0000000        0.0000000         -0.0269889        0.0233276        0.0642704
             2   0      16.2077027        8.6296883        0.7781102          0.0233811       -0.0100672        0.0050144
             3   0      16.2767664        8.0778795        1.9018661         -0.0020204       -0.0062630       -0.0055572
             4   0      15.1802835        7.7295268        2.6415552         -0.0041703        0.0005039       -0.0046434
             5   0      15.1805860        7.7281733        5.0144548          0.0050288        0.0121120        0.0048720
             6   0      16.2774400        8.0769591        5.7536843         -0.0045182       -0.0007837       -0.0141853
             7   0      16.2107740        8.6342040        6.8746675         -0.0061174        0.0038320        0.0148957
             8   0      15.1506227        9.0094467        7.6499968          0.0014696        0.0011238       -0.0018741
             9   0      15.1508745        9.6132268        8.9408761         -0.0017589       -0.0036006        0.0030334
             10   0      16.2110684        9.9879629        9.7163425         -0.0048856       -0.0024737       -0.0084322
             11   0      16.2781488       10.5446878       10.8376965         -0.0050121       -0.0000851        0.0084083
             12   0      15.1811375       10.8936465       11.5765972          0.0025048       -0.0040076        0.0026858
             13   0      15.1802840       10.8954037       13.9492450         -0.0140202       -0.0015349       -0.0157341
             14   0      16.2767771       10.5463900       14.6879642          0.0087022       -0.0088510        0.0031103
             15   0      16.2097426        9.9866245       15.8077891         -0.0056878       -0.0054489        0.0010326
             16   0      15.1487691        9.6076635       16.5801723          0.0136600        0.0036085       -0.0164060
             17   0      12.6870600        9.0059082        0.0271472          0.0042014       -0.0013511        0.0019006
             18   0      13.9085701        8.6962166        0.6857506         -0.0013815       -0.0024330       -0.0044436
             19   0      13.9211765        8.0779681        2.0000045          0.0186495       -0.0019438       -0.0078737
             20   0      12.6875958        7.7977319        2.6207605         -0.0028547        0.0040618       -0.0078084
             21   0      12.6880831        7.7974242        5.0365530         -0.0016707        0.0064488        0.0035101
             22   0      13.9221682        8.0787568        5.6559551          0.0107709       -0.0020083       -0.0000188
             23   0      13.9101501        8.7003616        6.9684235         -0.0046558       -0.0007094        0.0017185
             24   0      12.6887518        9.0071358        7.6290940         -0.0022273        0.0026536        0.0013632
             25   0      12.6889053        9.6152820        8.9625879         -0.0017980       -0.0025045       -0.0014434
             26   0      13.9105151        9.9216360        9.6229574         -0.0062768        0.0017648        0.0021255
             27   0      13.9227479       10.5427311       10.9356456          0.0073528        0.0056762       -0.0011956
             28   0      12.6887236       10.8246987       11.5550990         -0.0023700       -0.0003569       -0.0029979
             29   0      12.6875398       10.8256907       13.9703793         -0.0034823       -0.0026318        0.0021494
             30   0      13.9214366       10.5442065       14.5897053          0.0108992        0.0018101       -0.0025063
             31   0      13.9088292        9.9205933       15.9007506         -0.0173997       -0.0037847        0.0025356
             32   0      12.6872505        9.6149078       16.5621350          0.0028313       -0.0075989       -0.0035129
             33   0      10.2255541        9.0098549        0.0076449         -0.0007688        0.0072045       -0.0075305
             34   0      11.4657834        8.7011490        0.6891350          0.0035016       -0.0044871        0.0010714
             35   0      11.4534087        8.0797507        2.0017530         -0.0054893       -0.0073783       -0.0013357
             36   0      10.1949848        7.7283577        2.6429829          0.0002810        0.0093568       -0.0043182
             37   0      10.1954770        7.7286078        5.0154230         -0.0001329        0.0046689       -0.0008402
             38   0      11.4542425        8.0792659        5.6562309         -0.0076225       -0.0049689        0.0010881
             39   0      11.4670391        8.7006061        6.9688486          0.0063193       -0.0031717       -0.0047581
             40   0      10.2269220        9.0093768        7.6508199          0.0018409        0.0064288        0.0028004
             41   0      10.2271212        9.6133522        8.9415746          0.0033967       -0.0082509       -0.0086307
             42   0      11.4673847        9.9221485        9.6231707          0.0060804       -0.0003108        0.0024706
             43   0      11.4547359       10.5434398       10.9357159         -0.0043246        0.0038412       -0.0009883
             44   0      10.1961876       10.8944542       11.5769622         -0.0017214       -0.0067404       -0.0038891