BEGIN_CFG
 Size
    18
 SuperCell
         2.45951   0.0   0.0
         0.0   18.0   0.0
         0.0   0.0   15.9807
 AtomData:  id type	  cartes_x	cartes_y      cartes_z           fx          fy          fz
             1   0       0.0000000        9.0000000        0.0000000          0.0000000        0.0039464       -0.0059866
             2   0       1.2297600        8.5776800        0.5707380          0.0000000        0.0044305       -0.0047105
             3   0       1.2297600        7.7330300        1.7122200          0.0000000       -0.0083669        0.0145000
             4   0       0.0000000        7.3107000        2.2829500          0.0000000        0.0049730       -0.0092773
             5   0       0.0000000        7.3107000        4.5659100          0.0000000       -0.0038744       -0.0049882
             6   0       1.2297600        7.7330300        5.1366500          0.0000000        0.0069330        0.0074881
             7   0       1.2297600        8.5776800        6.2781200          0.0000000       -0.0021556       -0.0042187
             8   0       0.0000000        9.0000000        6.8488600          0.0000000       -0.0072135       -0.0069147
             9   0       0.0000000        9.8446500        7.9903400          0.0000000        0.0057431        0.0052553
             10   0       1.2297600       10.2670000        8.5610800          0.0000000        0.0061843        0.0091632
             11   0       1.2297600       11.1116000        9.7025500          0.0000000       -0.0117448       -0.0146216
             12   0       0.0000000       11.5339000       10.2733000          0.0000000        0.0062087        0.0091917
             13   0       0.0000000       11.5339000       12.5562000          0.0000000       -0.0030570        0.0053572
             14   0       1.2297600       11.1116000       13.1270000          0.0000000        0.0048172       -0.0092264
             15   0       1.2297600       10.2670000       14.2685000          0.0000000       -0.0016021        0.0011135
             16   0       0.0000000        9.8446500       14.8392000          0.0000000       -0.0049972        0.0075243
             17   1       0.0000000        6.4660500        3.4244300          0.0000000       -0.0004332        0.0033129
             18   1       0.0000000       12.3786000       11.4148000          0.0000000        0.0002085       -0.0029619
 Energy
         -3033.2315048149444
 PlusStress:  xx          yy          zz          yz          xz          xy
             -0.0068761       -0.0000955        0.0043025       -0.0000110        0.0000000        0.0000000
END_CFG

BEGIN_CFG
 Size
    18
 SuperCell
         2.45951   0.0   0.0
         0.0   18.0   0.0
         0.0   0.0   16.5777
 AtomData:  id type	  cartes_x	cartes_y      cartes_z           fx          fy          fz
             1   0       0.0000000        9.0000000        0.0000000          0.0000000        0.0025582       -0.0106207
             2   0       1.2297600        8.6081200        0.5920590          0.0000000        0.0042395       -0.0060105
             3   0       1.2297600        7.8243700        1.7761800          0.0000000        0.0016036        0.0080213
             4   0       0.0000000        7.4325000        2.3682400          0.0000000       -0.0040343       -0.0002921
             5   0       0.0000000        7.4325000        4.7364700          0.0000000        0.0032686        0.0157370
             6   0       1.2297600        7.8243700        5.3285300          0.0000000        0.0073377        0.0010637
             7   0       1.2297600        8.6081200        6.5126500          0.0000000        0.0005644        0.0001877
             8   0       0.0000000        9.0000000        7.1047100          0.0000000       -0.0057873       -0.0013372
             9   0       0.0000000        9.7837500        8.2888300          0.0000000        0.0075868        0.0036687
             10   0       1.2297600       10.1756000        8.8808800          0.0000000       -0.0021564       -0.0024035
             11   0       1.2297600       10.9594000       10.0650000          0.0000000       -0.0098419       -0.0049512
             12   0       0.0000000       11.3513000       10.6571000          0.0000000        0.0012498       -0.0078046
             13   0       0.0000000       11.3513000       13.0253000          0.0000000        0.0024477        0.0028002
             14   0       1.2297600       10.9594000       13.6174000          0.0000000       -0.0047339       -0.0030938
             15   0       1.2297600       10.1756000       14.8015000          0.0000000       -0.0004137        0.0005163
             16   0       0.0000000        9.7837500       15.3935000          0.0000000       -0.0038014        0.0123058
             17   1       0.0000000        6.6487500        3.5523500          0.0000000       -0.0018049       -0.0174187
             18   1       0.0000000       12.1350000       11.8412000          0.0000000        0.0017178        0.0096314
 Energy
         -3033.3423603192755
 PlusStress:  xx          yy          zz          yz          xz          xy
             -0.0063316       -0.0001221        0.0038792        0.0000239        0.0000000        0.0000000
END_CFG

BEGIN_CFG
 Size
    18
 SuperCell
         2.45951   0.0   0.0
         0.0   18.0   0.0
         0.0   0.0   16.3836
 AtomData:  id type	  cartes_x	cartes_y      cartes_z           fx          fy          fz
             1   0       0.0000000        9.0000000        0.0000000          0.0000000        0.0038217       -0.0100561
             2   0       1.2297600        8.5978500        0.5851300          0.0000000        0.0051170       -0.0084895
             3   0       1.2297600        7.7935500        1.7553900          0.0000000       -0.0089552        0.0196502
             4   0       0.0000000        7.3914100        2.3405200          0.0000000        0.0032247       -0.0057330
             5   0       0.0000000        7.3914100        4.6810400          0.0000000       -0.0031884       -0.0033458
             6   0       1.2297600        7.7935500        5.2661700          0.0000000        0.0166934        0.0199063
             7   0       1.2297600        8.5978500        6.4364300          0.0000000       -0.0128668       -0.0167782
             8   0       0.0000000        9.0000000        7.0215600          0.0000000       -0.0039325       -0.0008438
             9   0       0.0000000        9.8043000        8.1918100          0.0000000        0.0094717        0.0075917
             10   0       1.2297600       10.2064000        8.7769400          0.0000000        0.0027539        0.0027297
             11   0       1.2297600       11.0107000        9.9472000          0.0000000       -0.0121485       -0.0123146
             12   0       0.0000000       11.4129000       10.5323000          0.0000000        0.0058035        0.0074860
             13   0       0.0000000       11.4129000       12.8729000          0.0000000       -0.0034813        0.0059128
             14   0       1.2297600       11.0107000       13.4580000          0.0000000        0.0085278       -0.0192529
             15   0       1.2297600       10.2064000       14.6282000          0.0000000       -0.0075572        0.0117211
             16   0       0.0000000        9.8043000       15.2134000          0.0000000       -0.0016576        0.0077727
             17   1       0.0000000        6.5871100        3.5107800          0.0000000        0.0001687       -0.0079676
             18   1       0.0000000       12.2172000       11.7026000          0.0000000       -0.0017951        0.0020111
 Energy
         -3033.307416820685
 PlusStress:  xx          yy          zz          yz          xz          xy
             -0.0065235       -0.0001102        0.0040050       -0.0000009        0.0000000        0.0000000
END_CFG

BEGIN_CFG
 Size
    18
 SuperCell
         2.45951   0.0   0.0
         0.0   18.0   0.0
         0.0   0.0   16.1846
 AtomData:  id type	  cartes_x	cartes_y      cartes_z           fx          fy          fz
             1   0       0.0000000        9.0000000        0.0000000          0.0000000       -0.0008318       -0.0026346
             2   0       1.2297600        8.5877000        0.5780220          0.0000000       -0.0006029        0.0012130
             3   0       1.2297600        7.7631000        1.7340700          0.0000000        0.0009364        0.0022654
             4   0       0.0000000        7.3508000        2.3120900          0.0000000        0.0024809       -0.0086289
             5   0       0.0000000        7.3508000        4.6241800          0.0000000       -0.0023744       -0.0000769
             6   0       1.2297600        7.7631000        5.2022000          0.0000000        0.0005361       -0.0024500
             7   0       1.2297600        8.5877000        6.3582400          0.0000000        0.0001987        0.0000638
             8   0       0.0000000        9.0000000        6.9362600          0.0000000        0.0014324        0.0053510
             9   0       0.0000000        9.8246000        8.0923100          0.0000000       -0.0003018       -0.0042619
             10   0       1.2297600       10.2369000        8.6703300          0.0000000       -0.0009996       -0.0007770
             11   0       1.2297600       11.0615000        9.8263700          0.0000000       -0.0013470        0.0013956
             12   0       0.0000000       11.4738000       10.4044000          0.0000000       -0.0006541       -0.0048807
             13   0       0.0000000       11.4738000       12.7165000          0.0000000        0.0065869       -0.0078457
             14   0       1.2297600       11.0615000       13.2945000          0.0000000       -0.0044346        0.0035713
             15   0       1.2297600       10.2369000       14.4506000          0.0000000       -0.0022649        0.0026007
             16   0       0.0000000        9.8246000       15.0286000          0.0000000        0.0034710       -0.0004782
             17   1       0.0000000        6.5262100        3.4681300          0.0000000        0.0003633        0.0072937
             18   1       0.0000000       12.2984000       11.5604000          0.0000000       -0.0021942        0.0082790
 Energy
         -3033.270526755749
 PlusStress:  xx          yy          zz          yz          xz          xy
             -0.0067117       -0.0001065        0.0041602        0.0000000        0.0000000        0.0000000
END_CFG

BEGIN_CFG
 Size
    18
 SuperCell
         2.45951   0.0   0.0
         0.0   18.0   0.0
         0.0   0.0   15.7719
 AtomData:  id type	  cartes_x	cartes_y      cartes_z           fx          fy          fz
             1   0       0.0000000        9.0000000        0.0000000          0.0000000        0.0102641       -0.0119795
             2   0       1.2297600        8.5677800        0.5632810          0.0000000       -0.0009027        0.0008734
             3   0       1.2297600        7.7033400        1.6898400          0.0000000       -0.0033877        0.0065579
             4   0       0.0000000        7.2711200        2.2531200          0.0000000        0.0045200       -0.0055500
             5   0       0.0000000        7.2711200        4.5062500          0.0000000        0.0010873        0.0011503
             6   0       1.2297600        7.7033400        5.0695300          0.0000000        0.0027619        0.0023433
             7   0       1.2297600        8.5677800        6.1960900          0.0000000       -0.0012673        0.0023559
             8   0       0.0000000        9.0000000        6.7593700          0.0000000       -0.0052836       -0.0040924
             9   0       0.0000000        9.8644400        7.8859300          0.0000000        0.0062344        0.0050617
             10   0       1.2297600       10.2967000        8.4492100          0.0000000        0.0002620        0.0005458
             11   0       1.2297600       11.1611000        9.5757700          0.0000000       -0.0087582       -0.0106762
             12   0       0.0000000       11.5933000       10.1391000          0.0000000        0.0008582        0.0001334
             13   0       0.0000000       11.5933000       12.3922000          0.0000000        0.0042994       -0.0085888
             14   0       1.2297600       11.1611000       12.9555000          0.0000000        0.0042320       -0.0066293
             15   0       1.2297600       10.2967000       14.0820000          0.0000000       -0.0061123        0.0074788
             16   0       0.0000000        9.8644400       14.6453000          0.0000000       -0.0057852        0.0083085
             17   1       0.0000000        6.4066800        3.3796900          0.0000000        0.0004139       -0.0019612
             18   1       0.0000000       12.4578000       11.2656000          0.0000000       -0.0034365        0.0146684
 Energy
         -3033.1903044668043
 PlusStress:  xx          yy          zz          yz          xz          xy
             -0.0070579       -0.0001396        0.0043796        0.0000156        0.0000000        0.0000000
END_CFG

BEGIN_CFG
 Size
    18
 SuperCell
         2.45951   0.0   0.0
         0.0   18.0   0.0
         0.0   0.0   17.7913
 AtomData:  id type	  cartes_x	cartes_y      cartes_z           fx          fy          fz
             1   0       0.0000000        9.0000000        0.0000000          0.0000000        0.0098872        0.0214425
             2   0       1.2297600        8.6832000        0.6354030          0.0000000        0.0248626       -0.0029737
             3   0       1.2297600        8.0496000        1.9062100          0.0000000       -0.0189737       -0.0006880
             4   0       0.0000000        7.7328000        2.5416100          0.0000000       -0.0159362       -0.0070160
             5   0       0.0000000        7.7328000        5.0832300          0.0000000       -0.0144676        0.0191493
             6   0       1.2297600        8.0496000        5.7186300          0.0000000       -0.0122068        0.0153132
             7   0       1.2297600        8.6832000        6.9894400          0.0000000        0.0138451       -0.0218659
             8   0       0.0000000        9.0000000        7.6248400          0.0000000        0.0231901        0.0020731
             9   0       0.0000000        9.6336000        8.8956500          0.0000000       -0.0233202       -0.0026835
             10   0       1.2297600        9.9504000        9.5310500          0.0000000       -0.0120202        0.0229363
             11   0       1.2297600       10.5840000       10.8019000          0.0000000        0.0105708       -0.0186248
             12   0       0.0000000       10.9008000       11.4373000          0.0000000        0.0134170       -0.0137868
             13   0       0.0000000       10.9008000       13.9789000          0.0000000        0.0165597        0.0036219
             14   0       1.2297600       10.5840000       14.6143000          0.0000000        0.0156521        0.0083710
             15   0       1.2297600        9.9504000       15.8851000          0.0000000       -0.0211396       -0.0038363
             16   0       0.0000000        9.6336000       16.5205000          0.0000000       -0.0110748       -0.0197895
             17   1       0.0000000        7.0992000        3.8124200          0.0000000        0.0229497       -0.0141876
             18   1       0.0000000       11.5344000       12.7081000          0.0000000       -0.0217952        0.0125442
 Energy
         -3033.5458043259496
 PlusStress:  xx          yy          zz          yz          xz          xy
             -0.0038636       -0.0000744        0.0036276        0.0000046        0.0000000        0.0000000
END_CFG

BEGIN_CFG
 Size
    18
 SuperCell
         2.45951   0.0   0.0
         0.0   18.0   0.0
         0.0   0.0   17.4709
 AtomData:  id type	  cartes_x	cartes_y      cartes_z           fx          fy          fz
             1   0       0.0000000        9.0000000        0.0000000          0.0000000       -0.0020718        0.0141123
             2   0       1.2297600        8.6612200        0.6239600          0.0000000        0.0102137       -0.0078138
             3   0       1.2297600        7.9836500        1.8718800          0.0000000       -0.0182695       -0.0011825
             4   0       0.0000000        7.6448700        2.4958400          0.0000000       -0.0191043       -0.0055670
             5   0       0.0000000        7.6448700        4.9916800          0.0000000       -0.0176213        0.0087019
             6   0       1.2297600        7.9836500        5.6156400          0.0000000       -0.0106001        0.0149690
             7   0       1.2297600        8.6612200        6.8635600          0.0000000       -0.0022459       -0.0139562
             8   0       0.0000000        9.0000000        7.4875200          0.0000000        0.0099571        0.0071279
             9   0       0.0000000        9.6775700        8.7354400          0.0000000       -0.0093539       -0.0066782
             10   0       1.2297600       10.0163000        9.3594000          0.0000000        0.0001864        0.0121557
             11   0       1.2297600       10.6939000       10.6073000          0.0000000        0.0124948       -0.0115892
             12   0       0.0000000       11.0327000       11.2313000          0.0000000        0.0167001       -0.0128216
             13   0       0.0000000       11.0327000       13.7271000          0.0000000        0.0206771        0.0014691
             14   0       1.2297600       10.6939000       14.3511000          0.0000000        0.0150109        0.0070978
             15   0       1.2297600       10.0163000       15.5990000          0.0000000       -0.0062612        0.0010722
             16   0       0.0000000        9.6775700       16.2230000          0.0000000        0.0003993       -0.0110462
             17   1       0.0000000        6.9673000        3.7437600          0.0000000        0.0097319       -0.0071631
             18   1       0.0000000       11.7103000       12.4792000          0.0000000       -0.0098430        0.0111121
 Energy
         -3033.49002166931
 PlusStress:  xx          yy          zz          yz          xz          xy
             -0.0049819        0.0001010        0.0042557        0.0000037        0.0000000        0.0000000
END_CFG

BEGIN_CFG
 Size
    18
 SuperCell
         2.45951   0.0   0.0
         0.0   18.0   0.0
         0.0   0.0   17.1292
 AtomData:  id type	  cartes_x	cartes_y      cartes_z           fx          fy          fz
             1   0       0.0000000        9.0000000        0.0000000          0.0000000        0.0125717       -0.0024184
             2   0       1.2297600        8.6396500        0.6117570          0.0000000        0.0043434        0.0036265
             3   0       1.2297600        7.9189400        1.8352700          0.0000000       -0.0089179       -0.0048514
             4   0       0.0000000        7.5585900        2.4470300          0.0000000        0.0054132       -0.0059061
             5   0       0.0000000        7.5585900        4.8940500          0.0000000        0.0048211        0.0016293
             6   0       1.2297600        7.9189400        5.5058100          0.0000000       -0.0142277       -0.0057503
             7   0       1.2297600        8.6396500        6.7293200          0.0000000        0.0107328        0.0116404
             8   0       0.0000000        9.0000000        7.3410800          0.0000000        0.0016309       -0.0128015
             9   0       0.0000000        9.7207000        8.5645900          0.0000000       -0.0011483        0.0136652
             10   0       1.2297600       10.0811000        9.1763500          0.0000000       -0.0089762       -0.0107269
             11   0       1.2297600       10.8018000       10.3999000          0.0000000        0.0114221        0.0004713
             12   0       0.0000000       11.1621000       11.0116000          0.0000000       -0.0032041        0.0081607
             13   0       0.0000000       11.1621000       13.4586000          0.0000000       -0.0019731       -0.0019885
             14   0       1.2297600       10.8018000       14.0704000          0.0000000       -0.0020890        0.0243697
             15   0       1.2297600       10.0811000       15.2939000          0.0000000        0.0087803       -0.0233346
             16   0       0.0000000        9.7207000       15.9057000          0.0000000       -0.0186318        0.0103811
             17   1       0.0000000        6.8378900        3.6705400          0.0000000        0.0049347        0.0047931
             18   1       0.0000000       11.8828000       12.2351000          0.0000000       -0.0054818       -0.0109593
 Energy
         -3033.436120135637
 PlusStress:  xx          yy          zz          yz          xz          xy
             -0.0056246       -0.0001267        0.0034918        0.0000147        0.0000000        0.0000000
END_CFG

BEGIN_CFG
 Size
    18
 SuperCell
         2.45951   0.0   0.0
         0.0   18.0   0.0
         0.0   0.0   17.3027
 AtomData:  id type	  cartes_x	cartes_y      cartes_z           fx          fy          fz
             1   0       0.0000000        9.0000000        0.0000000          0.0000000        0.0011943       -0.0118662
             2   0       1.2297600        8.6503800        0.6179530          0.0000000       -0.0079486        0.0077555
             3   0       1.2297600        7.9511400        1.8538600          0.0000000       -0.0110570       -0.0090109
             4   0       0.0000000        7.6015200        2.4718100          0.0000000       -0.0232111       -0.0218873
             5   0       0.0000000        7.6015200        4.9436200          0.0000000       -0.0249914        0.0163535
             6   0       1.2297600        7.9511400        5.5615700          0.0000000       -0.0170413       -0.0020381
             7   0       1.2297600        8.6503800        6.7974800          0.0000000        0.0021718        0.0106662
             8   0       0.0000000        9.0000000        7.4154300          0.0000000       -0.0095601       -0.0064175
             9   0       0.0000000        9.6992400        8.6513400          0.0000000        0.0086476        0.0048972
             10   0       1.2297600       10.0489000        9.2692900          0.0000000       -0.0005235       -0.0069857
             11   0       1.2297600       10.7481000       10.5052000          0.0000000        0.0160290        0.0006664
             12   0       0.0000000       11.0977000       11.1231000          0.0000000        0.0247664       -0.0181034
             13   0       0.0000000       11.0977000       13.5950000          0.0000000        0.0231469        0.0214340
             14   0       1.2297600       10.7481000       14.2129000          0.0000000        0.0119723        0.0061223
             15   0       1.2297600       10.0489000       15.4488000          0.0000000        0.0069970       -0.0059015
             16   0       0.0000000        9.6992400       16.0668000          0.0000000        0.0000630        0.0099515
             17   1       0.0000000        6.9022800        3.7077200          0.0000000       -0.0036777        0.0091102
             18   1       0.0000000       11.7970000       12.3591000          0.0000000        0.0030218       -0.0047460
 Energy
         -3033.462398577207
 PlusStress:  xx          yy          zz          yz          xz          xy
             -0.0052537        0.0002745        0.0049617       -0.0000028        0.0000000        0.0000000
END_CFG

BEGIN_CFG
 Size
    18
 SuperCell
         2.45951   0.0   0.0
         0.0   18.0   0.0
         0.0   0.0   16.7666
 AtomData:  id type	  cartes_x	cartes_y      cartes_z           fx          fy          fz
             1   0       0.0000000        9.0000000        0.0000000          0.0000000        0.0070965       -0.0126532
             2   0       1.2297600        8.6185200        0.5988080          0.0000000       -0.0082962        0.0108480
             3   0       1.2297600        7.8555500        1.7964200          0.0000000        0.0018658       -0.0011999
             4   0       0.0000000        7.4740700        2.3952300          0.0000000       -0.0007436        0.0028987
             5   0       0.0000000        7.4740700        4.7904600          0.0000000        0.0000692       -0.0015049
             6   0       1.2297600        7.8555500        5.3892700          0.0000000        0.0019674        0.0007947
             7   0       1.2297600        8.6185200        6.5868900          0.0000000        0.0004998        0.0011097
             8   0       0.0000000        9.0000000        7.1857000          0.0000000       -0.0066448       -0.0075912
             9   0       0.0000000        9.7629700        8.3833100          0.0000000        0.0036857        0.0025948
             10   0       1.2297600       10.1444000        8.9821200          0.0000000        0.0075935        0.0113653
             11   0       1.2297600       10.9074000       10.1797000          0.0000000       -0.0087729       -0.0121791
             12   0       0.0000000       11.2889000       10.7785000          0.0000000        0.0007492        0.0020880
             13   0       0.0000000       11.2889000       13.1738000          0.0000000        0.0012061       -0.0053258
             14   0       1.2297600       10.9074000       13.7726000          0.0000000        0.0087343       -0.0167446
             15   0       1.2297600       10.1444000       14.9702000          0.0000000       -0.0093910        0.0144553
             16   0       0.0000000        9.7629700       15.5690000          0.0000000        0.0019954       -0.0007765
             17   1       0.0000000        6.7111000        3.5928500          0.0000000        0.0014398       -0.0017553
             18   1       0.0000000       12.0519000       11.9762000          0.0000000       -0.0030545        0.0135765
 Energy
         -3033.3753546664407
 PlusStress:  xx          yy          zz          yz          xz          xy
             -0.0060865       -0.0000937        0.0037856        0.0000110        0.0000000        0.0000000
END_CFG

BEGIN_CFG
 Size
    18
 SuperCell
         2.45951   0.0   0.0
         0.0   18.0   0.0
         0.0   0.0   16.9505
 AtomData:  id type	  cartes_x	cartes_y      cartes_z           fx          fy          fz
             1   0       0.0000000        9.0000000        0.0000000          0.0000000       -0.0125735        0.0027328
             2   0       1.2297600        8.6290300        0.6053750          0.0000000        0.0020967        0.0033028
             3   0       1.2297600        7.8870800        1.8161200          0.0000000        0.0153423       -0.0059426
             4   0       0.0000000        7.5161000        2.4215000          0.0000000       -0.0092863       -0.0144175
             5   0       0.0000000        7.5161000        4.8430000          0.0000000       -0.0108398        0.0095738
             6   0       1.2297600        7.8870800        5.4483700          0.0000000        0.0003301       -0.0202382
             7   0       1.2297600        8.6290300        6.6591200          0.0000000        0.0115095        0.0137014
             8   0       0.0000000        9.0000000        7.2644900          0.0000000       -0.0054579        0.0066432
             9   0       0.0000000        9.7419500        8.4752400          0.0000000       -0.0015491       -0.0159213
             10   0       1.2297600       10.1129000        9.0806200          0.0000000       -0.0011045        0.0016373
             11   0       1.2297600       10.8549000       10.2914000          0.0000000       -0.0054464        0.0099340
             12   0       0.0000000       11.2258000       10.8967000          0.0000000        0.0102834       -0.0100926
             13   0       0.0000000       11.2258000       13.3182000          0.0000000        0.0086135        0.0155822
             14   0       1.2297600       10.8549000       13.9236000          0.0000000       -0.0177339        0.0099566
             15   0       1.2297600       10.1129000       15.1344000          0.0000000        0.0048473       -0.0106500
             16   0       0.0000000        9.7419500       15.7397000          0.0000000        0.0084399        0.0003571
             17   1       0.0000000        6.7741600        3.6322500          0.0000000        0.0014938        0.0160830
             18   1       0.0000000       11.9678000       12.1075000          0.0000000        0.0010349       -0.0122423
 Energy
         -3033.4065842193045
 PlusStress:  xx          yy          zz          yz          xz          xy
             -0.0058496       -0.0000679        0.0038021       -0.0000156        0.0000000        0.0000000
END_CFG

BEGIN_CFG
 Size
    18
 SuperCell
         2.45951   0.0   0.0
         0.0   18.0   0.0
         0.0   0.0   15.5583
 AtomData:  id type	  cartes_x	cartes_y      cartes_z           fx          fy          fz
             1   0       0.0000000        9.0000000        0.0000000          0.0000000       -0.0048877        0.0055790
             2   0       1.2297600        8.5580100        0.5556520          0.0000000        0.0035391       -0.0072194
             3   0       1.2297600        7.6740400        1.6669600          0.0000000        0.0004255        0.0003348
             4   0       0.0000000        7.2320600        2.2226100          0.0000000        0.0022052        0.0024906
             5   0       0.0000000        7.2320600        4.4452100          0.0000000        0.0046779        0.0030110