BEGIN_CFG
 Size
    18
 SuperCell
         2.4595098289855892   0.0   0.0
         0.0   17.999998928235733   0.0
         0.0   0.0   14.30050016435894
 AtomData:  id type	  cartes_x	cartes_y      cartes_z           fx          fy          fz
             1   0       0.0000000        8.9653393       -0.0703352          0.0000000       -0.0040055       -0.0068481
             2   0       1.2297600        8.3938424        0.3425414          0.0000000       -0.0064905        0.0062231
             3   0       1.2297600        7.2879006        1.2438714          0.0000000        0.0071256       -0.0069849
             4   0       0.0000000        6.7880883        1.7526838          0.0000000        0.0006510       -0.0004703
             5   0       0.0000000        6.7880707        4.3757083          0.0000000        0.0066921        0.0074827
             6   0       1.2297600        7.2880122        4.8847843          0.0000000       -0.0042842       -0.0035047
             7   0       1.2297600        8.3936329        5.7861208          0.0000000        0.0041066        0.0020543
             8   0       0.0000000        8.9652253        6.1991756          0.0000000       -0.0068314        0.0049897
             9   0       0.0000000       10.1125843        7.0435194          0.0000000       -0.0062504        0.0009724
             10   0       1.2297600       10.6628638        7.4853158          0.0000000        0.0128841        0.0002178
             11   0       1.2297600       11.6731966        8.4913079          0.0000000       -0.0015655       -0.0008785
             12   0       0.0000000       12.1158864        9.0683785          0.0000000       -0.0122192        0.0080144
             13   0       0.0000000       12.1159688       11.3610331          0.0000000       -0.0109892       -0.0099815
             14   0       1.2297600       11.6733079       11.9381203          0.0000000        0.0013437       -0.0019402
             15   0       1.2297600       10.6631008       12.9440441          0.0000000        0.0057878        0.0065861
             16   0       0.0000000       10.1127072       13.3859449          0.0000000       -0.0001054       -0.0057922
             17   1       0.0000000        6.0161118        3.0642244          0.0000000        0.0188120       -0.0021024
             18   2       0.0000000       12.8617207       10.2146422          0.0000000       -0.0046614        0.0019625
 Energy
         -2839.8932622890843
 PlusStress:  xx          yy          zz          yz          xz          xy
             -0.0047561       -0.0003030        0.0043961       -0.0000055        0.0000000        0.0000000
END_CFG

BEGIN_CFG
 Size
    18
 SuperCell
         2.4595098289855892   0.0   0.0
         0.0   17.999998928235733   0.0
         0.0   0.0   16.67279823431853
 AtomData:  id type	  cartes_x	cartes_y      cartes_z           fx          fy          fz
             1   0       0.0000000        8.8856227       -0.2039710          0.0000000        0.0019157       -0.0015455
             2   0       1.2297600        8.4242205        0.3287289          0.0000000       -0.0079139        0.0056613
             3   0       1.2297600        7.5978492        1.4824908          0.0000000        0.0036998       -0.0011621
             4   0       0.0000000        7.2543317        2.1080159          0.0000000        0.0030825       -0.0095984
             5   0       0.0000000        7.2564318        5.0344782          0.0000000       -0.0002453        0.0038042
             6   0       1.2297600        7.5991600        5.6604745          0.0000000        0.0046437        0.0042927
             7   0       1.2297600        8.4233847        6.8159517          0.0000000       -0.0016373       -0.0005446
             8   0       0.0000000        8.8840211        7.3497318          0.0000000       -0.0026464       -0.0049131
             9   0       0.0000000        9.8314604        8.4068488          0.0000000        0.0038271        0.0006682
             10   0       1.2297600       10.2949014        8.9401530          0.0000000        0.0020044        0.0203909
             11   0       1.2297600       11.1375863       10.0830242          0.0000000       -0.0034723       -0.0039340
             12   0       0.0000000       11.4999981       10.7111924          0.0000000        0.0054111       -0.0003993
             13   0       0.0000000       11.5022279       13.1087135          0.0000000        0.0042197        0.0005680
             14   0       1.2297600       11.1405860       13.7373606          0.0000000        0.0007505       -0.0037232
             15   0       1.2297600       10.2980317       14.8799960          0.0000000       -0.0000455       -0.0135952
             16   0       0.0000000        9.8342975       15.4129812          0.0000000        0.0051088       -0.0003767
             17   1       0.0000000        6.9664756        3.5711981          0.0000000       -0.0023914        0.0034589
             18   2       0.0000000       12.1300531       11.9093875          0.0000000       -0.0163111        0.0009477
 Energy
         -2840.5421501189057
 PlusStress:  xx          yy          zz          yz          xz          xy
             -0.0001524       -0.0001028        0.0050949       -0.0000422        0.0000000        0.0000000
END_CFG

BEGIN_CFG
 Size
    18
 SuperCell
         2.4595098289855892   0.0   0.0
         0.0   17.999998928235733   0.0
         0.0   0.0   14.53929889267481
 AtomData:  id type	  cartes_x	cartes_y      cartes_z           fx          fy          fz
             1   0       0.0000000        8.9677752       -0.0677143          0.0000000       -0.0142545       -0.0032239
             2   0       1.2297600        8.4057072        0.3581127          0.0000000       -0.0025888        0.0052957
             3   0       1.2297600        7.3181652        1.2811066          0.0000000        0.0081440       -0.0070142
             4   0       0.0000000        6.8263765        1.7979822          0.0000000       -0.0009485       -0.0006230
             5   0       0.0000000        6.8262097        4.4322628          0.0000000        0.0048555        0.0068844
             6   0       1.2297600        7.3180172        4.9495986          0.0000000       -0.0031015       -0.0041243
             7   0       1.2297600        8.4050520        5.8729774          0.0000000        0.0031877       -0.0007343
             8   0       0.0000000        8.9670205        6.2990233          0.0000000       -0.0055906        0.0103322
             9   0       0.0000000       10.0938096        7.1705917          0.0000000       -0.0096051       -0.0010014
             10   0       1.2297600       10.6337128        7.6250571          0.0000000        0.0113365       -0.0010392
             11   0       1.2297600       11.6240202        8.6502985          0.0000000        0.0018448        0.0029663
             12   0       0.0000000       12.0584569        9.2336925          0.0000000       -0.0134158        0.0085438
             13   0       0.0000000       12.0587254       11.5370551          0.0000000       -0.0091516       -0.0130869
             14   0       1.2297600       11.6245408       12.1204855          0.0000000        0.0002486        0.0007287
             15   0       1.2297600       10.6344471       13.1458028          0.0000000        0.0047748        0.0078671
             16   0       0.0000000       10.0943948       13.6004426          0.0000000        0.0062064       -0.0119693
             17   1       0.0000000        6.0654408        3.1150024          0.0000000        0.0227316       -0.0017414
             18   2       0.0000000       12.7941780       10.3852334          0.0000000       -0.0046738        0.0019402
 Energy
         -2839.9422429160995
 PlusStress:  xx          yy          zz          yz          xz          xy
             -0.0046110       -0.0002892        0.0042740       -0.0000285        0.0000000        0.0000000
END_CFG

BEGIN_CFG
 Size
    18
 SuperCell
         2.4595098289855892   0.0   0.0
         0.0   17.999998928235733   0.0
         0.0   0.0   17.216598317017073
 AtomData:  id type	  cartes_x	cartes_y      cartes_z           fx          fy          fz
             1   0       0.0000000        8.8853196       -0.1956790          0.0000000        0.0042637        0.0000776
             2   0       1.2297600        8.4649670        0.3705043          0.0000000       -0.0030213        0.0010367
             3   0       1.2297600        7.7187586        1.5769365          0.0000000        0.0088212       -0.0144871
             4   0       0.0000000        7.4107485        2.2211683          0.0000000       -0.0064375       -0.0007233
             5   0       0.0000000        7.4095711        5.1578986          0.0000000       -0.0035265        0.0109300
             6   0       1.2297600        7.7176336        5.8024996          0.0000000        0.0056947       -0.0055978
             7   0       1.2297600        8.4646402        7.0080927          0.0000000        0.0064036        0.0105621
             8   0       0.0000000        8.8857303        7.5739371          0.0000000        0.0036345        0.0078948
             9   0       0.0000000        9.7549320        8.6961085          0.0000000       -0.0035700       -0.0163939
             10   0       1.2297600       10.1823994        9.2589707          0.0000000       -0.0137441       -0.0023058
             11   0       1.2297600       10.9606185       10.4447364          0.0000000       -0.0008379        0.0050538
             12   0       0.0000000       11.2973146       11.0874387          0.0000000        0.0044141       -0.0219570
             13   0       0.0000000       11.2961421       13.5075937          0.0000000        0.0170140        0.0021173
             14   0       1.2297600       10.9594398       14.1497145          0.0000000       -0.0094840        0.0109904
             15   0       1.2297600       10.1812893       15.3358138          0.0000000       -0.0089791       -0.0068103
             16   0       0.0000000        9.7540447       15.8987025          0.0000000       -0.0002329        0.0081828
             17   1       0.0000000        7.1510086        3.6894662          0.0000000       -0.0052355        0.0028799
             18   2       0.0000000       11.8954423       12.2975649          0.0000000        0.0048231        0.0085502
 Energy
         -2840.665470205788
 PlusStress:  xx          yy          zz          yz          xz          xy
             -0.0000735       -0.0000432        0.0050903       -0.0000064        0.0000000        0.0000000
END_CFG

BEGIN_CFG
 Size
    18
 SuperCell
         2.4595098289855892   0.0   0.0
         0.0   17.999998928235733   0.0
         0.0   0.0   14.057298913449186
 AtomData:  id type	  cartes_x	cartes_y      cartes_z           fx          fy          fz
             1   0       0.0000000        8.9631866       -0.0733501          0.0000000       -0.0072559       -0.0054549
             2   0       1.2297600        8.3822117        0.3262797          0.0000000        0.0007562        0.0001334
             3   0       1.2297600        7.2584693        1.2054272          0.0000000        0.0016429        0.0014133
             4   0       0.0000000        6.7510251        1.7065108          0.0000000       -0.0005826       -0.0050972
             5   0       0.0000000        6.7511265        4.3184595          0.0000000        0.0045629        0.0053119
             6   0       1.2297600        7.2585257        4.8194232          0.0000000        0.0035186       -0.0015046
             7   0       1.2297600        8.3824527        5.6982236          0.0000000       -0.0010590       -0.0005464
             8   0       0.0000000        8.9633835        6.0977063          0.0000000       -0.0035119        0.0079442
             9   0       0.0000000       10.1306630        6.9143535          0.0000000        0.0015496        0.0014635
             10   0       1.2297600       10.6913296        7.3430939          0.0000000        0.0029367       -0.0068787
             11   0       1.2297600       11.7213221        8.3290236          0.0000000        0.0022657        0.0043192
             12   0       0.0000000       12.1722055        8.8998028          0.0000000       -0.0127702        0.0049080
             13   0       0.0000000       12.1720575       11.1819450          0.0000000       -0.0078920       -0.0117085
             14   0       1.2297600       11.7212716       11.7525395          0.0000000       -0.0055757        0.0039909
             15   0       1.2297600       10.6910898       12.7385864          0.0000000        0.0091189        0.0007559
             16   0       0.0000000       10.1304667       13.1672709          0.0000000       -0.0004998       -0.0008791
             17   1       0.0000000        5.9680938        3.0125619          0.0000000        0.0215559       -0.0006304
             18   2       0.0000000       12.9279093       10.0408383          0.0000000       -0.0087603        0.0024598
 Energy
         -2839.842182439861
 PlusStress:  xx          yy          zz          yz          xz          xy
             -0.0049085       -0.0003048        0.0045265        0.0000202        0.0000000        0.0000000
END_CFG

BEGIN_CFG
 Size
    18
 SuperCell
         2.4595098289855892   0.0   0.0
         0.0   17.999998928235733   0.0
         0.0   0.0   16.859199565237688
 AtomData:  id type	  cartes_x	cartes_y      cartes_z           fx          fy          fz
             1   0       0.0000000        8.8875375       -0.2002147          0.0000000       -0.0013295        0.0021109
             2   0       1.2297600        8.4389334        0.3431610          0.0000000        0.0014666       -0.0044352
             3   0       1.2297600        7.6388247        1.5142840          0.0000000        0.0101803       -0.0109416
             4   0       0.0000000        7.3078379        2.1458380          0.0000000       -0.0092123        0.0044233
             5   0       0.0000000        7.3096296        5.0755531          0.0000000       -0.0058521       -0.0001635
             6   0       1.2297600        7.6398430        5.7080073          0.0000000        0.0010462       -0.0016854
             7   0       1.2297600        8.4369538        6.8811245          0.0000000        0.0065689        0.0128396
             8   0       0.0000000        8.8840867        7.4259906          0.0000000        0.0027066        0.0026380
             9   0       0.0000000        9.8050270        8.5058381          0.0000000       -0.0064972       -0.0109416
             10   0       1.2297600       10.2557399        9.0494914          0.0000000       -0.0099077        0.0096036
             11   0       1.2297600       11.0749797       10.2077446          0.0000000        0.0044948        0.0025526
             12   0       0.0000000       11.4282509       10.8408031          0.0000000        0.0110889       -0.0163759
             13   0       0.0000000       11.4317995       13.2457196          0.0000000        0.0202500       -0.0012539
             14   0       1.2297600       11.0802249       13.8792468          0.0000000       -0.0028948        0.0083548
             15   0       1.2297600       10.2615794       15.0380495          0.0000000       -0.0059418       -0.0107184
             16   0       0.0000000        9.8105556       15.5813966          0.0000000       -0.0003502        0.0012074
             17   1       0.0000000        7.0324498        3.6106103          0.0000000       -0.0216621        0.0015013
             18   2       0.0000000       12.0480865       12.0421301          0.0000000        0.0058454        0.0112841
 Energy
         -2840.584906822146
 PlusStress:  xx          yy          zz          yz          xz          xy
             -0.0000184        0.0001001        0.0055741       -0.0000367        0.0000000        0.0000000
END_CFG

BEGIN_CFG
 Size
    18
 SuperCell
         2.4595098289855892   0.0   0.0
         0.0   17.999998928235733   0.0
         0.0   0.0   14.773700017416452
 AtomData:  id type	  cartes_x	cartes_y      cartes_z           fx          fy          fz
             1   0       0.0000000        8.9690409       -0.0662167          0.0000000       -0.0061701        0.0012454
             2   0       1.2297600        8.4173679        0.3730978          0.0000000       -0.0046815       -0.0047609
             3   0       1.2297600        7.3490185        1.3176645          0.0000000        0.0053214       -0.0133420
             4   0       0.0000000        6.8652667        1.8423702          0.0000000        0.0061287        0.0046956
             5   0       0.0000000        6.8653263        4.4890952          0.0000000        0.0110326        0.0015496
             6   0       1.2297600        7.3492296        5.0139248          0.0000000       -0.0048743        0.0036397
             7   0       1.2297600        8.4173539        5.9583726          0.0000000        0.0040474        0.0122968
             8   0       0.0000000        8.9690491        6.3977951          0.0000000       -0.0036738        0.0007086
             9   0       0.0000000       10.0749421        7.2953913          0.0000000       -0.0116543       -0.0000838
             10   0       1.2297600       10.6042669        7.7620521          0.0000000        0.0169343        0.0085939
             11   0       1.2297600       11.5742019        8.8065424          0.0000000       -0.0106089       -0.0103091
             12   0       0.0000000       11.9996880        9.3960829          0.0000000       -0.0021996        0.0063403
             13   0       0.0000000       11.9997774       11.7092382          0.0000000       -0.0058991       -0.0013956
             14   0       1.2297600       11.5741206       12.2990401          0.0000000        0.0058562       -0.0091647
             15   0       1.2297600       10.6045802       13.3431198          0.0000000       -0.0083409        0.0156467
             16   0       0.0000000       10.0748168       13.8101313          0.0000000        0.0072973       -0.0161712
             17   1       0.0000000        6.1179100        3.1658143          0.0000000        0.0070284       -0.0013879
             18   2       0.0000000       12.7254630       10.5526570          0.0000000       -0.0055441        0.0018982
 Energy
         -2839.9892099007084
 PlusStress:  xx          yy          zz          yz          xz          xy
             -0.0044494       -0.0002360        0.0042584       -0.0000018        0.0000000        0.0000000
END_CFG

BEGIN_CFG
 Size
    18
 SuperCell
         2.4595098289855892   0.0   0.0
         0.0   17.999998928235733   0.0
         0.0   0.0   17.387398977090978
 AtomData:  id type	  cartes_x	cartes_y      cartes_z           fx          fy          fz
             1   0       0.0000000        8.8846283       -0.1940831          0.0000000       -0.0009184        0.0018471
             2   0       1.2297600        8.4785153        0.3821111          0.0000000       -0.0005392        0.0100600
             3   0       1.2297600        7.7606362        1.6049489          0.0000000       -0.0158007        0.0104011
             4   0       0.0000000        7.4637857        2.2553385          0.0000000        0.0067597       -0.0024796
             5   0       0.0000000        7.4644285        5.1963917          0.0000000        0.0052805        0.0021890
             6   0       1.2297600        7.7612399        5.8468326          0.0000000       -0.0158961       -0.0122485
             7   0       1.2297600        8.4791963        7.0695893          0.0000000        0.0007397       -0.0102510
             8   0       0.0000000        8.8855110        7.6456381          0.0000000        0.0031954        0.0010973
             9   0       0.0000000        9.7268864        8.7878204          0.0000000       -0.0043832        0.0059336
             10   0       1.2297600       10.1410101        9.3604029          0.0000000        0.0020124       -0.0028223
             11   0       1.2297600       10.8983587       10.5591465          0.0000000        0.0112134        0.0134276
             12   0       0.0000000       11.2282308       11.2057192          0.0000000       -0.0028166       -0.0017645
             13   0       0.0000000       11.2281059       13.6341758          0.0000000        0.0017229       -0.0159941
             14   0       1.2297600       10.8980154       14.2801646          0.0000000        0.0023083        0.0011627
             15   0       1.2297600       10.1396531       15.4785782          0.0000000        0.0125256       -0.0078234
             16   0       0.0000000        9.7255277       16.0508768          0.0000000       -0.0047393       -0.0022883
             17   1       0.0000000        7.2150204        3.7258931          0.0000000        0.0005854        0.0020759
             18   2       0.0000000       11.8171000       12.4197954          0.0000000       -0.0012498        0.0074775
 Energy
         -2840.702977697023
 PlusStress:  xx          yy          zz          yz          xz          xy
             -0.0000551        0.0000028        0.0049847       -0.0000009        0.0000000        0.0000000
END_CFG

BEGIN_CFG
 Size
    18
 SuperCell
         2.4595098289855892   0.0   0.0
         0.0   17.999998928235733   0.0
         0.0   0.0   15.665697825624141
 AtomData:  id type	  cartes_x	cartes_y      cartes_z           fx          fy          fz
             1   0       0.0000000        8.8828474       -0.2223012          0.0000000        0.0064416        0.0000471
             2   0       1.2297600        8.3615220        0.2516462          0.0000000       -0.0065260       -0.0087726
             3   0       1.2297600        7.4157215        1.3113976          0.0000000        0.0007101        0.0021034
             4   0       0.0000000        7.0185113        1.9027761          0.0000000        0.0038153        0.0007618
             5   0       0.0000000        7.0192100        4.8112272          0.0000000        0.0002638       -0.0095018
             6   0       1.2297600        7.4164350        5.4024301          0.0000000        0.0007670       -0.0001985
             7   0       1.2297600        8.3621548        6.4621603          0.0000000       -0.0027799        0.0121958
             8   0       0.0000000        8.8835229        6.9361636          0.0000000        0.0052769       -0.0022240
             9   0       0.0000000        9.9519675        7.8722395          0.0000000        0.0045794       -0.0115551
             10   0       1.2297600       10.4725378        8.3494657          0.0000000       -0.0038441        0.0148612
             11   0       1.2297600       11.4185851        9.4100401          0.0000000       -0.0035322       -0.0017849
             12   0       0.0000000       11.8214480       10.0122054          0.0000000        0.0001013       -0.0109102
             13   0       0.0000000       11.8209780       12.3674206          0.0000000        0.0032003        0.0056729
             14   0       1.2297600       11.4179873       12.9693930          0.0000000       -0.0050592        0.0034340
             15   0       1.2297600       10.4717816       14.0298360          0.0000000       -0.0061010       -0.0112447
             16   0       0.0000000        9.9511950       14.5072127          0.0000000        0.0077179        0.0078259
             17   1       0.0000000        6.6834121        3.3569789          0.0000000       -0.0026853        0.0055158
             18   2       0.0000000       12.4984226       11.1898661          0.0000000       -0.0023464        0.0037739
 Energy
         -2840.300209079022
 PlusStress:  xx          yy          zz          yz          xz          xy
             -0.0002369       -0.0001028        0.0055200        0.0000083        0.0000000        0.0000000
END_CFG

BEGIN_CFG
 Size
    18
 SuperCell
         2.4595098289855892   0.0   0.0
         0.0   17.999998928235733   0.0
         0.0   0.0   15.228999557938605
 AtomData:  id type	  cartes_x	cartes_y      cartes_z           fx          fy          fz
             1   0       0.0000000        8.8823408       -0.2283678          0.0000000        0.0062835       -0.0080085
             2   0       1.2297600        8.3385229        0.2195899          0.0000000       -0.0028313       -0.0043953
             3   0       1.2297600        7.3479331        1.2387292          0.0000000        0.0072276       -0.0011896
             4   0       0.0000000        6.9306063        1.8154619          0.0000000        0.0006495        0.0051468
             5   0       0.0000000        6.9286436        4.7158803          0.0000000        0.0060141        0.0039274
             6   0       1.2297600        7.3471112        5.2919027          0.0000000       -0.0013943       -0.0069116
             7   0       1.2297600        8.3401696        6.3081336          0.0000000       -0.0017656        0.0066615
             8   0       0.0000000        8.8850647        6.7544850          0.0000000        0.0060387        0.0075084
             9   0       0.0000000        9.9989057        7.6366538          0.0000000        0.0082540       -0.0075968
             10   0       1.2297600       10.5405409        8.0900053          0.0000000       -0.0062956        0.0071780
             11   0       1.2297600       11.5253598        9.1155302          0.0000000       -0.0026513       -0.0008667
             12   0       0.0000000       11.9433303        9.7070503          0.0000000        0.0015537        0.0044717
             13   0       0.0000000       11.9407885       12.0463538          0.0000000       -0.0083401        0.0088875
             14   0       1.2297600       11.5215450       12.6373301          0.0000000       -0.0026277       -0.0014424
             15   0       1.2297600       10.5360215       13.6623849          0.0000000       -0.0037443       -0.0102595
             16   0       0.0000000        9.9946497       14.1161082          0.0000000        0.0040734        0.0106832
             17   1       0.0000000        6.5761716        3.2657276          0.0000000       -0.0063879       -0.0046735
             18   2       0.0000000       12.6370548       10.8776430          0.0000000       -0.0040562       -0.0091205
 Energy
         -2840.190284476132
 PlusStress:  xx          yy          zz          yz          xz          xy
             -0.0002901       -0.0001579        0.0056008        0.0000533        0.0000000        0.0000000
END_CFG

BEGIN_CFG
 Size
    18
 SuperCell
         2.4595098289855892   0.0   0.0
         0.0   17.999998928235733   0.0
         0.0   0.0   15.44969875342297
 AtomData:  id type	  cartes_x	cartes_y      cartes_z           fx          fy          fz
             1   0       0.0000000        8.8815669       -0.2277443          0.0000000       -0.0005574        0.0033959
             2   0       1.2297600        8.3490517        0.2338300          0.0000000        0.0053710       -0.0083185
             3   0       1.2297600        7.3827029        1.2752252          0.0000000       -0.0005129       -0.0032221
             4   0       0.0000000        6.9762674        1.8598309          0.0000000        0.0033856        0.0045213
             5   0       0.0000000        6.9752819        4.7639099          0.0000000        0.0019039        0.0097010
             6   0       1.2297600        7.3823532        5.3482721          0.0000000       -0.0029457       -0.0012357
             7   0       1.2297600        8.3502279        6.3882102          0.0000000       -0.0035114       -0.0002157
             8   0       0.0000000        8.8832483        6.8486826          0.0000000        0.0064596        0.0025572
             9   0       0.0000000        9.9748767        7.7577612          0.0000000       -0.0016514       -0.0073765
             10   0       1.2297600       10.5059215        8.2231079          0.0000000       -0.0026572        0.0032663
             11   0       1.2297600       11.4721210        9.2653846          0.0000000       -0.0025698       -0.0042487
             12   0       0.0000000       11.8829769        9.8615281          0.0000000        0.0055685        0.0056886
             13   0       0.0000000       11.8815199       12.2080702          0.0000000       -0.0062524        0.0104590
             14   0       1.2297600       11.4696788       12.8040972          0.0000000        0.0049733       -0.0074788
             15   0       1.2297600       10.5031003       13.8458054          0.0000000       -0.0103163        0.0037487
             16   0       0.0000000        9.9721091       14.3114943          0.0000000        0.0004947        0.0061542
             17   1       0.0000000        6.6309118        3.3120845          0.0000000       -0.0003764       -0.0104119
             18   2       0.0000000       12.5688637       11.0354240          0.0000000        0.0031936       -0.0069844
 Energy
         -2840.2461943459916
 PlusStress:  xx          yy          zz          yz          xz          xy
             -0.0002507       -0.0000560        0.0056816        0.0000266        0.0000000        0.0000000
END_CFG

BEGIN_CFG
 Size
    18
 SuperCell
         2.4595098289855892   0.0   0.0
         0.0   17.999998928235733   0.0
         0.0   0.0   15.876898394148963
 AtomData:  id type	  cartes_x	cartes_y      cartes_z           fx          fy          fz
             1   0       0.0000000        8.8847674       -0.2179097          0.0000000       -0.0038903        0.0052556
             2   0       1.2297600        8.3743582        0.2678732          0.0000000       -0.0058074       -0.0016255