BEGIN_CFG
 Size
    44
 SuperCell
         22.918999862964764   0.0   0.0
         0.0   18.000009517375954   0.0
         0.0   0.0   14.300493316495768
 AtomData:  id type	  cartes_x	cartes_y      cartes_z           fx          fy          fz
             1   0      12.6893000        9.0000000        0.0000000          0.0097740       -0.0403987       -0.1583499
             2   0      13.7532316        8.3185344        0.5241865          0.0114378       -0.0040703        0.0240653
             3   0      13.8207810        7.4000741        1.3738842          0.0020240        0.0253436        0.0035201
             4   0      12.7215180        6.8307337        1.9600060          0.0030262        0.0064612       -0.0027156
             5   0      12.7204375        6.7947003        4.1932449         -0.0038860       -0.0126318        0.0152112
             6   0      13.8183168        7.3354693        4.8075111          0.0059297        0.0016159        0.0056150
             7   0      13.7525265        8.2347447        5.6777032         -0.0000805       -0.0023464        0.0019630
             8   0      12.6906119        8.9193678        6.2028696          0.0019654        0.0016206        0.0126712
             9   0      12.6900971       10.0623221        7.0729757         -0.0027539       -0.0120664       -0.0095164
             10   0      13.7510076       10.7463844        7.6000590          0.0082676        0.0099219        0.0143601
             11   0      13.8161122       11.6447489        8.4714018         -0.0013740       -0.0015938        0.0053235
             12   0      12.7182394       12.1841341        9.0874427          0.0002497       -0.0043308       -0.0067029
             13   0      12.7160745       12.1981523       11.3391006          0.0065877        0.0066895        0.0140398
             14   0      13.8131476       11.6696898       11.9654769          0.0116849        0.0130813        0.0095604
             15   0      13.7486716       10.7931563       12.8584935         -0.0088289        0.0085412        0.0182440
             16   0      12.6874696       10.1242968       13.4053278         -0.0002329       -0.0027863        0.0070075
             17   0      10.2275548        8.9549729       -0.0507260         -0.0113411       -0.0119873       -0.0018730
             18   0      11.4597713        8.3900234        0.4569484          0.0035458        0.0022034       -0.0075081
             19   0      11.4617816        7.3156344        1.4372138         -0.0065337        0.0041559        0.0042531
             20   0      10.2015342        6.8095595        1.9409358          0.0097177        0.0019273        0.0049615
             21   0      10.2005555        6.7979673        4.1864293          0.0055814       -0.0067718       -0.0073382
             22   0      11.4599981        7.2767343        4.7174389          0.0006302        0.0016411        0.0011447
             23   0      11.4593791        8.3337138        5.7173936         -0.0005253       -0.0021425       -0.0031553
             24   0      10.2277511        8.9187446        6.2023729         -0.0065633       -0.0044670        0.0031529
             25   0      10.2274756       10.0609112        7.0731121         -0.0076143        0.0085194        0.0025973
             26   0      11.4585770       10.6461672        7.5596867          0.0011763       -0.0070135        0.0002720
             27   0      11.4584253       11.7028463        8.5599412         -0.0053260       -0.0088402       -0.0019880
             28   0      10.1980427       12.1849131        9.0849113          0.0050849        0.0025770       -0.0039407
             29   0      10.1972387       12.1921509       11.3325563         -0.0053304        0.0051792        0.0059917
             30   0      11.4561899       11.7240588       11.8724267          0.0017124       -0.0044812        0.0049599
             31   0      11.4558903       10.6863371       12.8935677          0.0033982       -0.0042210        0.0015727
             32   0      10.2250123       10.0942897       13.3740533          0.0017969        0.0026277        0.0123264
             33   0       9.1695085        8.2445785        0.4491650          0.0162519        0.0179180        0.0005793
             34   0       9.1061185        7.3363961        1.3104400         -0.0061822        0.0003754        0.0149988
             35   0       9.1028283        7.3380005        4.8011129         -0.0138855        0.0198229        0.0178710
             36   0       9.1666244        8.2350391        5.6740466          0.0028557       -0.0071320       -0.0127810
             37   0       9.1659906       10.7450283        7.6000409          0.0033910       -0.0134230       -0.0111686
             38   0       9.1003071       11.6445412        8.4697144         -0.0029272        0.0079990        0.0148065
             39   0       9.0990973       11.6471793       11.9422896         -0.0158344       -0.0092547        0.0168194
             40   0       9.1632928       10.7601153       12.8252220         -0.0038911        0.0054327       -0.0067067
             41   1      12.7633056        5.9923707        3.0633024         -0.0160912       -0.0025636        0.0042022
             42   1      10.1545879        5.9916062        3.0591533          0.0036042       -0.0015301       -0.0042536
             43   1      12.7622821       12.9972815       10.2082504         -0.0111300        0.0056449       -0.0018605
             44   1      10.1550105       12.9978572       10.2058859          0.0106390        0.0047537       -0.0022325
 Energy
         -7924.616333384524
 PlusStress:  xx          yy          zz          yz          xz          xy
             -0.0000202       -0.0000331        0.0008924        0.0000147       -0.0000092       -0.0000009
END_CFG

BEGIN_CFG
 Size
    44
 SuperCell
         22.918999862964764   0.0   0.0
         0.0   18.000009517375954   0.0
         0.0   0.0   15.449697807624549
 AtomData:  id type	  cartes_x	cartes_y      cartes_z           fx          fy          fz
             1   0      12.6893000        9.0000000        0.0000000          0.0159655       -0.0457469       -0.0862716
             2   0      13.7509264        8.3905691        0.6099619         -0.0036864        0.0051186        0.0093694
             3   0      13.8190301        7.5632141        1.5482083          0.0002378        0.0145131        0.0095496
             4   0      12.7203001        7.0448067        2.1810660          0.0019661        0.0090446        0.0003201
             5   0      12.7202358        7.0167365        4.4511649          0.0048136       -0.0020685        0.0030002
             6   0      13.8185599        7.5132906        5.1016415         -0.0009349        0.0051126        0.0069209
             7   0      13.7507985        8.3254814        6.0533565          0.0071677       -0.0147453       -0.0115643
             8   0      12.6905374        8.9363147        6.6635260         -0.0084903        0.0061159        0.0089199
             9   0      12.6895146        9.9527163        7.6795779          0.0106279        0.0039744        0.0034486
             10   0      13.7490322       10.5646314        8.2907883         -0.0026161       -0.0055754       -0.0071256
             11   0      13.8153398       11.3786264        9.2406932          0.0039829        0.0022279        0.0115427
             12   0      12.7170295       11.8751780        9.8910323         -0.0083139       -0.0020769        0.0052759
             13   0      12.7157988       11.8855856       12.1730565          0.0045251        0.0052091        0.0056076
             14   0      13.8138957       11.3971719       12.8300039          0.0038415        0.0088019        0.0096987
             15   0      13.7479828       10.6011378       13.7952184         -0.0056814        0.0089965        0.0049085
             16   0      12.6884089       10.0015978       14.4184832         -0.0044295        0.0020934        0.0020484
             17   0      10.2273214        8.9651599       -0.0304896          0.0098746        0.0112609       -0.0141220
             18   0      11.4592678        8.4599055        0.5374602          0.0010575       -0.0094388       -0.0008557
             19   0      11.4608195        7.4922753        1.6250217         -0.0029035       -0.0024639       -0.0006698
             20   0      10.2015866        7.0279379        2.1687396         -0.0065859        0.0034419       -0.0017723
             21   0      10.2014830        7.0180092        4.4465005         -0.0029874        0.0056405        0.0027457
             22   0      11.4604024        7.4612252        5.0084147         -0.0022793       -0.0030725        0.0029920
             23   0      11.4596559        8.4148854        6.1084780         -0.0017576       -0.0059572        0.0013041
             24   0      10.2282488        8.9356513        6.6628238          0.0014259        0.0009415        0.0027349
             25   0      10.2276125        9.9516505        7.6793369         -0.0041786       -0.0002461       -0.0025297
             26   0      11.4583334       10.4740080        8.2338078         -0.0006253       -0.0009287       -0.0028740
             27   0      11.4577213       11.4296871        9.3320384          0.0035420       -0.0018792        0.0015301
             28   0      10.1979627       11.8752141        9.8895666          0.0031401       -0.0013033        0.0050337
             29   0      10.1974955       11.8809038       12.1691536         -0.0012521       -0.0034682        0.0025976
             30   0      11.4565442       11.4461513       12.7366818          0.0023662        0.0046884       -0.0001633
             31   0      11.4568979       10.5058741       13.8489248         -0.0006222        0.0044408       -0.0002980
             32   0      10.2260061        9.9793513       14.3999733          0.0017640       -0.0083905        0.0076526
             33   0       9.1697496        8.3334006        0.5632725         -0.0019975        0.0031532        0.0042115
             34   0       9.1042453        7.5127653        1.5076983          0.0030473        0.0000363        0.0176905
             35   0       9.1033600        7.5138164        5.0980176         -0.0023986       -0.0072263       -0.0146440
             36   0       9.1689586        8.3247727        6.0504739         -0.0023448        0.0053595        0.0053872
             37   0       9.1674771       10.5627424        8.2899221         -0.0025007        0.0090068        0.0080707
             38   0       9.1000369       11.3773029        9.2396044         -0.0028565       -0.0089585       -0.0032062
             39   0       9.0993706       11.3795694       12.8162790         -0.0046406        0.0029660       -0.0006898
             40   0       9.1658613       10.5751844       13.7744919         -0.0015108        0.0043768        0.0018679
             41   1      12.7628982        6.2413259        3.3063718         -0.0050975        0.0018993       -0.0027922
             42   1      10.1562508        6.2392255        3.3039848          0.0016882       -0.0016859        0.0038430
             43   1      12.7601803       12.6602129       11.0284618         -0.0021818        0.0018093       -0.0011873
             44   1      10.1549184       12.6601231       11.0272257          0.0018391       -0.0049977        0.0024935
 Energy
         -7924.997561607115
 PlusStress:  xx          yy          zz          yz          xz          xy
             -0.0000257       -0.0000321        0.0006556        0.0000119       -0.0000083        0.0000018
END_CFG

BEGIN_CFG
 Size
    44
 SuperCell
         22.918999862964764   0.0   0.0
         0.0   18.000009517375954   0.0
         0.0   0.0   14.773701906666401
 AtomData:  id type	  cartes_x	cartes_y      cartes_z           fx          fy          fz
             1   0      12.6893000        9.0000000        0.0000000          0.0027017       -0.0241545       -0.1292442
             2   0      13.7516431        8.3485623        0.5628422          0.0144681       -0.0049273        0.0141532
             3   0      13.8199988        7.4659772        1.4494315          0.0061717        0.0159789        0.0077812
             4   0      12.7210037        6.9148147        2.0529961         -0.0059056        0.0071649        0.0023091
             5   0      12.7199777        6.8791619        4.3002870          0.0001484       -0.0071245       -0.0002111
             6   0      13.8182297        7.4016391        4.9296321          0.0063753        0.0011899       -0.0015342
             7   0      13.7516710        8.2680775        5.8321807         -0.0062185        0.0065368        0.0139197
             8   0      12.6906189        8.9259677        6.3918595          0.0035335       -0.0153598       -0.0006466
             9   0      12.6898393       10.0195581        7.3232148          0.0131353        0.0103744        0.0122032
             10   0      13.7499553       10.6768718        7.8851488         -0.0025994        0.0109935        0.0147859
             11   0      13.8157051       11.5427172        8.7889029          0.0070042       -0.0212193       -0.0130980
             12   0      12.7176896       12.0643444        9.4192193         -0.0126717       -0.0012442        0.0097746
             13   0      12.7154685       12.0792943       11.6832470          0.0123745        0.0005680        0.0090480
             14   0      13.8131830       11.5693304       12.3240224          0.0048931       -0.0005929        0.0142966
             15   0      13.7483607       10.7230092       13.2458700         -0.0086633        0.0103484        0.0053230
             16   0      12.6884672       10.0772320       13.8214930         -0.0130941       -0.0032710        0.0173159
             17   0      10.2266756        8.9591877       -0.0409434          0.0084116        0.0017969       -0.0129496
             18   0      11.4591622        8.4175665        0.4913986          0.0058007       -0.0035479       -0.0091675
             19   0      11.4613796        7.3849869        1.5164069         -0.0048072        0.0000113       -0.0046596
             20   0      10.2018399        6.8940274        2.0356325         -0.0028845        0.0030725        0.0018070
             21   0      10.2011141        6.8820669        4.2933330         -0.0070250        0.0080596        0.0000440
             22   0      11.4599641        7.3480995        4.8364476          0.0027997       -0.0041467        0.0048794
             23   0      11.4594296        8.3653691        5.8769536         -0.0010565       -0.0028308        0.0094133
             24   0      10.2277856        8.9250393        6.3912616          0.0022878        0.0031725        0.0088374
             25   0      10.2274328       10.0182114        7.3236700         -0.0063203        0.0045750       -0.0009690
             26   0      11.4585018       10.5781157        7.8396060         -0.0026547       -0.0022698       -0.0114946
             27   0      11.4581098       11.5954544        8.8801406         -0.0008366        0.0004559       -0.0043141
             28   0      10.1980449       12.0648718        9.4169517          0.0034604       -0.0024030        0.0035371
             29   0      10.1973064       12.0721608       11.6772431         -0.0071019       -0.0043403        0.0018633
             30   0      11.4561849       11.6162111       12.2275927          0.0012861        0.0053111        0.0028789
             31   0      11.4564229       10.6159404       13.2857198         -0.0002090        0.0038919        0.0046714
             32   0      10.2252395       10.0501694       13.7967260          0.0044215       -0.0016686        0.0051813
             33   0       9.1687288        8.2790800        0.4980501          0.0119250        0.0015537        0.0081620
             34   0       9.1052945        7.4041164        1.3930283         -0.0008845        0.0098820        0.0103939
             35   0       9.1030603        7.4047734        4.9232136         -0.0056824        0.0028981       -0.0037793
             36   0       9.1678073        8.2687929        5.8282935         -0.0039132       -0.0012406       -0.0026158
             37   0       9.1667656       10.6753983        7.8845241          0.0020890       -0.0049597       -0.0044753
             38   0       9.1001444       11.5421895        8.7867974         -0.0018041       -0.0014252        0.0094725
             39   0       9.0990469       11.5450677       12.3028223         -0.0099836       -0.0051126        0.0078380
             40   0       9.1645741       10.6899022       13.2163651         -0.0015866        0.0040531       -0.0005649
             41   1      12.7620753        6.0882485        3.1638453         -0.0032990        0.0010984       -0.0006870
             42   1      10.1558666        6.0867469        3.1599978         -0.0011724       -0.0036818        0.0021721
             43   1      12.7611262       12.8675902       10.5460514         -0.0064956        0.0011578       -0.0009773
             44   1      10.1551053       12.8671855       10.5443392          0.0035826        0.0013753       -0.0006734
 Energy
         -7924.786511338366
 PlusStress:  xx          yy          zz          yz          xz          xy
             -0.0000248       -0.0000459        0.0007869        0.0000174       -0.0000064       -0.0000037
END_CFG

BEGIN_CFG
 Size
    44
 SuperCell
         22.918999862964764   0.0   0.0
         0.0   18.000009517375954   0.0
         0.0   0.0   16.859193380197016
 AtomData:  id type	  cartes_x	cartes_y      cartes_z           fx          fy          fz
             1   0      12.6893000        9.0000000        0.0000000          0.0170258       -0.0148566       -0.0303192
             2   0      13.7487589        8.5049336        0.7091245         -0.0091554        0.0042184       -0.0025408
             3   0      13.8166143        7.8158708        1.7530651          0.0084288        0.0143989        0.0025652
             4   0      12.7196583        7.3779106        2.4468644         -0.0058351        0.0041441        0.0026698
             5   0      12.7204469        7.3654098        4.7726923         -0.0058048       -0.0084281       -0.0054968
             6   0      13.8175862        7.7946584        5.4714995          0.0073179        0.0044657        0.0116499
             7   0      13.7497255        8.4732380        6.5224093         -0.0102631        0.0025354        0.0029259
             8   0      12.6903410        8.9660097        7.2334375          0.0131458       -0.0041588       -0.0092992
             9   0      12.6891389        9.7812879        8.4186014         -0.0066872        0.0049445       -0.0011043
             10   0      13.7466887       10.2771022        9.1290325          0.0085903        0.0009775       -0.0029419
             11   0      13.8140922       10.9613330       10.1760213         -0.0058338        0.0051463        0.0160483
             12   0      12.7154787       11.3931987       10.8719438          0.0108917       -0.0043218       -0.0068381
             13   0      12.7148846       11.3960963       13.1995322          0.0093485        0.0134875        0.0081172
             14   0      13.8129897       10.9676435       13.8977448          0.0046912        0.0138806        0.0082342
             15   0      13.7470687       10.2964794       14.9534060         -0.0023256       -0.0014738       -0.0062046
             16   0      12.6888293        9.8091713       15.6691961         -0.0071734       -0.0137225        0.0050247
             17   0      10.2277578        8.9835000       -0.0099698         -0.0027130       -0.0004834        0.0031388
             18   0      11.4591432        8.5694389        0.6297307         -0.0021029       -0.0075161       -0.0031167
             19   0      11.4604289        7.7665991        1.8463098         -0.0005312       -0.0039878        0.0025184
             20   0      10.2020597        7.3706419        2.4429037         -0.0013943       -0.0108367        0.0076130
             21   0      10.2028928        7.3643113        4.7709709         -0.0015357       -0.0005147        0.0003080
             22   0      11.4611140        7.7496824        5.3751409          0.0038045       -0.0021173       -0.0000684
             23   0      11.4602777        8.5438764        6.5974704         -0.0047954        0.0017579        0.0038680
             24   0      10.2291605        8.9656016        7.2324353         -0.0060709       -0.0044087       -0.0078550
             25   0      10.2278202        9.7806970        8.4178249          0.0010847       -0.0003641       -0.0060979
             26   0      11.4579232       10.2057345        9.0517627          0.0050751       -0.0032409       -0.0040983
             27   0      11.4570792       11.0058791       10.2700782         -0.0026084       -0.0097543        0.0003450
             28   0      10.1978268       11.3927233       10.8716419         -0.0035975       -0.0060609       -0.0074791
             29   0      10.1979011       11.3957021       13.1990967         -0.0133893       -0.0072742        0.0140963
             30   0      11.4565195       11.0134619       13.8044067          0.0071397       -0.0000116        0.0052705
             31   0      11.4575930       10.2234880       15.0297639         -0.0060843        0.0014419       -0.0032208
             32   0      10.2268918        9.7977085       15.6629147          0.0129861       -0.0090706        0.0087096
             33   0       9.1700202        8.4779762        0.6942708          0.0088539        0.0046776        0.0025999
             34   0       9.1040631        7.7929128        1.7410634         -0.0050129        0.0107364       -0.0026819
             35   0       9.1052682        7.7926593        5.4699193         -0.0076850        0.0015344       -0.0035949
             36   0       9.1712565        8.4721387        6.5202113          0.0028166       -0.0046131        0.0034633
             37   0       9.1690231       10.2750775        9.1277229         -0.0051461        0.0054309        0.0036898
             38   0       9.1004905       10.9591169       10.1749879          0.0039094       -0.0008225        0.0034227
             39   0       9.1007026       10.9617173       13.8958556          0.0018206        0.0059711       -0.0094331
             40   0       9.1684677       10.2835220       14.9468851         -0.0094303        0.0088222       -0.0036425
             41   1      12.7655008        6.6308489        3.6057906         -0.0025423        0.0078655       -0.0055150
             42   1      10.1582099        6.6287323        3.6049063         -0.0047745       -0.0005181        0.0053880
             43   1      12.7585324       12.1330574       12.0347020          0.0077526        0.0073325       -0.0006160
             44   1      10.1528705       12.1333591       12.0343840         -0.0021914       -0.0052142        0.0004975
 Energy
         -7925.2967200238545
 PlusStress:  xx          yy          zz          yz          xz          xy
             -0.0000165       -0.0000294        0.0002911        0.0000046        0.0000018        0.0000101
END_CFG

BEGIN_CFG
 Size
    44
 SuperCell
         22.918999862964764   0.0   0.0
         0.0   18.000009517375954   0.0
         0.0   0.0   14.539309295067861
 AtomData:  id type	  cartes_x	cartes_y      cartes_z           fx          fy          fz
             1   0      12.6893000        9.0000000        0.0000000          0.0331955       -0.0394610       -0.1254434
             2   0      13.7529409        8.3349280        0.5465444         -0.0084191        0.0168657       -0.0052132
             3   0      13.8205132        7.4347916        1.4151691         -0.0000746        0.0073906        0.0148525
             4   0      12.7210896        6.8730012        2.0085261         -0.0028426        0.0074169        0.0008199
             5   0      12.7198503        6.8352715        4.2484913          0.0101232       -0.0034098        0.0065915
             6   0      13.8183386        7.3667230        4.8704018         -0.0035324        0.0093766        0.0079766
             7   0      13.7518400        8.2505925        5.7563989          0.0081087       -0.0156346       -0.0068029
             8   0      12.6906046        8.9226147        6.2979624         -0.0057186        0.0008233        0.0153315
             9   0      12.6900334       10.0410557        7.1995752         -0.0017134       -0.0094555       -0.0044403
             10   0      13.7499797       10.7124986        7.7439622          0.0133165        0.0162905        0.0221138
             11   0      13.8161162       11.5945602        8.6319061         -0.0014362       -0.0135885       -0.0059189
             12   0      12.7179925       12.1245631        9.2555580         -0.0022399       -0.0030061        0.0038286
             13   0      12.7156866       12.1406961       11.5138057          0.0011171        0.0087806        0.0022155
             14   0      13.8132128       11.6237682       12.1488203          0.0085803       -0.0026467        0.0177296
             15   0      13.7482905       10.7617971       13.0560721         -0.0151325       -0.0020638        0.0146026
             16   0      12.6883529       10.1009503       13.6152776         -0.0042508        0.0127612        0.0066882
             17   0      10.2266400        8.9573255       -0.0450070          0.0101075       -0.0045041       -0.0105559
             18   0      11.4595853        8.4040945        0.4746298         -0.0025377       -0.0093172       -0.0026416
             19   0      11.4616387        7.3505659        1.4779629         -0.0008737       -0.0018427        0.0009487
             20   0      10.2018725        6.8516717        1.9891882         -0.0051993       -0.0023258        0.0037227
             21   0      10.2007092        6.8389422        4.2403082         -0.0060405        0.0090487        0.0039153
             22   0      11.4597669        7.3118227        4.7776454         -0.0024341       -0.0035700        0.0016098
             23   0      11.4592093        8.3496974        5.7973889          0.0008713       -0.0053397        0.0083746
             24   0      10.2276832        8.9221328        6.2974050         -0.0033892       -0.0049908        0.0034952
             25   0      10.2274729       10.0394679        7.2001383         -0.0031316        0.0055934       -0.0032897
             26   0      11.4586375       10.6113531        7.7022644         -0.0033658        0.0044321       -0.0060321
             27   0      11.4583771       11.6486761        8.7228216         -0.0054348       -0.0033933       -0.0054682
             28   0      10.1981540       12.1253956        9.2528024         -0.0013838       -0.0019972       -0.0007117
             29   0      10.1968930       12.1333284       11.5067921         -0.0033849       -0.0053219        0.0059195
             30   0      11.4559404       11.6707021       12.0516996          0.0021309        0.0029691        0.0009171
             31   0      11.4562954       10.6509120       13.0911046         -0.0064805        0.0065103        0.0026541
             32   0      10.2249852       10.0725260       13.5877873          0.0004772        0.0078640       -0.0015182
             33   0       9.1689611        8.2619117        0.4750551          0.0119960        0.0034818        0.0092465
             34   0       9.1053664        7.3699121        1.3532401          0.0008968        0.0138084        0.0042500
             35   0       9.1027516        7.3709513        4.8626625         -0.0030910       -0.0041955       -0.0108727
             36   0       9.1673063        8.2518805        5.7512030         -0.0022063        0.0096622        0.0045362
             37   0       9.1668132       10.7111806        7.7435252         -0.0028053       -0.0146242       -0.0114052
             38   0       9.1000751       11.5944323        8.6294651          0.0054117        0.0135387        0.0245970
             39   0       9.0984522       11.5976694       12.1251404         -0.0028483        0.0060855       -0.0049265
             40   0       9.1640090       10.7262883       13.0230747          0.0018949       -0.0093048        0.0106917
             41   1      12.7617962        6.0390956        3.1149046         -0.0056605        0.0056659       -0.0047043
             42   1      10.1550257        6.0381549        3.1099617          0.0045817        0.0011272        0.0037461
             43   1      12.7618460       12.9336632       10.3788383         -0.0090328       -0.0040423        0.0040739
             44   1      10.1552806       12.9336871       10.3766759          0.0018504       -0.0054567        0.0044966
 Energy
         -7924.70452126187
 PlusStress:  xx          yy          zz          yz          xz          xy
             -0.0000358       -0.0000477        0.0008300        0.0000220       -0.0000110       -0.0000064
END_CFG

BEGIN_CFG
 Size
    44
 SuperCell
         22.918999862964764   0.0   0.0
         0.0   18.000009517375954   0.0
         0.0   0.0   15.665709381332992
 AtomData:  id type	  cartes_x	cartes_y      cartes_z           fx          fy          fz
             1   0      12.6893000        9.0000000        0.0000000          0.0078123       -0.0439558       -0.0764371
             2   0      13.7503470        8.4058106        0.6252965          0.0018712        0.0041377        0.0095912