BEGIN_CFG
 Size
    18
 SuperCell
         2.4595098289855892   0.0   0.0
         0.0   17.999998928235733   0.0
         0.0   0.0   15.77189946003974
 AtomData:  id type	  cartes_x	cartes_y      cartes_z           fx          fy          fz
             1   0       0.0000000        8.8779963       -0.1202023          0.0000000        0.0140192       -0.0139308
             2   0       1.2297600        8.3372536        0.3305335          0.0000000       -0.0137454        0.0116340
             3   0       1.2297600        7.3535578        1.3541327          0.0000000       -0.0171076        0.0061483
             4   0       0.0000000        6.9451995        1.9387585          0.0000000       -0.0122230       -0.0088544
             5   0       0.0000000        6.9458377        4.8208137          0.0000000       -0.0205521       -0.0099306
             6   0       1.2297600        7.3541422        5.4051312          0.0000000       -0.0092884        0.0018551
             7   0       1.2297600        8.3379473        6.4285668          0.0000000        0.0008631        0.0010768
             8   0       0.0000000        8.8791716        6.8796532          0.0000000       -0.0206568       -0.0124776
             9   0       0.0000000        9.9860297        7.7659070          0.0000000        0.0165929        0.0085546
             10   0       1.2297600       10.5271769        8.2168585          0.0000000        0.0038888        0.0039469
             11   0       1.2297600       11.5110211        9.2403436          0.0000000        0.0083767       -0.0051751
             12   0       0.0000000       11.9192636        9.8245998          0.0000000        0.0202138        0.0059392
             13   0       0.0000000       11.9185103       12.7065102          0.0000000        0.0171850        0.0029797
             14   0       1.2297600       11.5103043       13.2910268          0.0000000        0.0116517       -0.0014005
             15   0       1.2297600       10.5265018       14.3146244          0.0000000        0.0134489       -0.0135240
             16   0       0.0000000        9.9856360       14.7652266          0.0000000       -0.0127763        0.0146530
             17   1       0.0000000        6.5456771        3.3796116          0.0000000       -0.0172722        0.0112419
             18   1       0.0000000       12.3188132       11.2656854          0.0000000        0.0173814       -0.0027364
 Energy
         -2647.3388676214904
 PlusStress:  xx          yy          zz          yz          xz          xy
              0.0034073        0.0005564        0.0063261        0.0000055        0.0000000        0.0000000
END_CFG

BEGIN_CFG
 Size
    18
 SuperCell
         2.4595098289855892   0.0   0.0
         0.0   17.999998928235733   0.0
         0.0   0.0   15.558298409921829
 AtomData:  id type	  cartes_x	cartes_y      cartes_z           fx          fy          fz
             1   0       0.0000000        8.8762818       -0.1253481          0.0000000        0.0029691        0.0001661
             2   0       1.2297600        8.3245417        0.3144339          0.0000000        0.0022513       -0.0054127
             3   0       1.2297600        7.3187162        1.3179227          0.0000000       -0.0059740        0.0056045
             4   0       0.0000000        6.8997168        1.8961452          0.0000000        0.0037561       -0.0064974
             5   0       0.0000000        6.9011793        4.7724327          0.0000000       -0.0034165       -0.0076771
             6   0       1.2297600        7.3206816        5.3497119          0.0000000        0.0098214        0.0124092
             7   0       1.2297600        8.3278454        6.3523854          0.0000000       -0.0120706       -0.0068849
             8   0       0.0000000        8.8795877        6.7917663          0.0000000        0.0061344        0.0018473
             9   0       0.0000000       10.0074953        7.6539237          0.0000000        0.0025595        0.0057289
             10   0       1.2297600       10.5591419        8.0939839          0.0000000       -0.0048908       -0.0087806
             11   0       1.2297600       11.5648734        9.0975771          0.0000000        0.0043518        0.0020343
             12   0       0.0000000       11.9838895        9.6756239          0.0000000       -0.0001903        0.0001406
             13   0       0.0000000       11.9831135       12.5515778          0.0000000       -0.0066918        0.0098237
             14   0       1.2297600       11.5632900       13.1293140          0.0000000        0.0121875       -0.0122706
             15   0       1.2297600       10.5565218       14.1315414          0.0000000       -0.0094156        0.0120837
             16   0       0.0000000       10.0044474       14.5710758          0.0000000       -0.0003872       -0.0029593
             17   1       0.0000000        6.4849384        3.3344395          0.0000000        0.0011858        0.0042295
             18   1       0.0000000       12.3994884       11.1138850          0.0000000       -0.0021798       -0.0035851
 Energy
         -2647.2871533388525
 PlusStress:  xx          yy          zz          yz          xz          xy
              0.0031171       -0.0000542        0.0055108       -0.0000073        0.0000000        0.0000000
END_CFG

BEGIN_CFG
 Size
    18
 SuperCell
         2.4595098289855892   0.0   0.0
         0.0   17.999998928235733   0.0
         0.0   0.0   15.980699546971472
 AtomData:  id type	  cartes_x	cartes_y      cartes_z           fx          fy          fz
             1   0       0.0000000        8.8803240       -0.1139552          0.0000000        0.0067995       -0.0100263
             2   0       1.2297600        8.3496796        0.3493115          0.0000000        0.0055711       -0.0127995
             3   0       1.2297600        7.3856055        1.3907094          0.0000000       -0.0187313        0.0080643
             4   0       0.0000000        6.9857038        1.9809984          0.0000000       -0.0102713       -0.0154431
             5   0       0.0000000        6.9851156        4.8675020          0.0000000       -0.0207452       -0.0024402
             6   0       1.2297600        7.3841422        5.4579217          0.0000000       -0.0029416        0.0119567
             7   0       1.2297600        8.3476163        6.5005291          0.0000000       -0.0039374        0.0035119
             8   0       0.0000000        8.8780889        6.9639725          0.0000000        0.0010112        0.0054369
             9   0       0.0000000        9.9642924        7.8765686          0.0000000       -0.0042295       -0.0067826
             10   0       1.2297600       10.4949485        8.3396551          0.0000000        0.0046771       -0.0023706
             11   0       1.2297600       11.4594275        9.3812046          0.0000000        0.0039934       -0.0115425
             12   0       0.0000000       11.8591542        9.9710722          0.0000000        0.0187169       -0.0012195
             13   0       0.0000000       11.8594899       12.8573594          0.0000000        0.0131784        0.0123068
             14   0       1.2297600       11.4601033       13.4479553          0.0000000        0.0147316       -0.0018988
             15   0       1.2297600       10.4967237       14.4902776          0.0000000        0.0013568        0.0068972
             16   0       0.0000000        9.9664020       14.9537539          0.0000000       -0.0095892        0.0132890
             17   1       0.0000000        6.5966261        3.4238722          0.0000000       -0.0238701        0.0064884
             18   1       0.0000000       12.2483266       11.4141398          0.0000000        0.0242794       -0.0034283
 Energy
         -2647.3896783501273
 PlusStress:  xx          yy          zz          yz          xz          xy
              0.0033761        0.0004774        0.0064262       -0.0000083        0.0000000        0.0000000
END_CFG

BEGIN_CFG
 Size
    18
 SuperCell
         2.4595098289855892   0.0   0.0
         0.0   17.999998928235733   0.0
         0.0   0.0   15.558298409921829
 AtomData:  id type	  cartes_x	cartes_y      cartes_z           fx          fy          fz
             1   0       0.0000000        8.8762818       -0.1253481          0.0000000        0.0029691        0.0001661
             2   0       1.2297600        8.3245417        0.3144339          0.0000000        0.0022513       -0.0054127
             3   0       1.2297600        7.3187162        1.3179227          0.0000000       -0.0059740        0.0056045
             4   0       0.0000000        6.8997168        1.8961452          0.0000000        0.0037561       -0.0064974
             5   0       0.0000000        6.9011793        4.7724327          0.0000000       -0.0034165       -0.0076771
             6   0       1.2297600        7.3206816        5.3497119          0.0000000        0.0098214        0.0124092
             7   0       1.2297600        8.3278454        6.3523854          0.0000000       -0.0120706       -0.0068849
             8   0       0.0000000        8.8795877        6.7917663          0.0000000        0.0061344        0.0018473
             9   0       0.0000000       10.0074953        7.6539237          0.0000000        0.0025595        0.0057289
             10   0       1.2297600       10.5591419        8.0939839          0.0000000       -0.0048908       -0.0087806
             11   0       1.2297600       11.5648734        9.0975771          0.0000000        0.0043518        0.0020343
             12   0       0.0000000       11.9838895        9.6756239          0.0000000       -0.0001903        0.0001406
             13   0       0.0000000       11.9831135       12.5515778          0.0000000       -0.0066918        0.0098237
             14   0       1.2297600       11.5632900       13.1293140          0.0000000        0.0121875       -0.0122706
             15   0       1.2297600       10.5565218       14.1315414          0.0000000       -0.0094156        0.0120837
             16   0       0.0000000       10.0044474       14.5710758          0.0000000       -0.0003872       -0.0029593
             17   1       0.0000000        6.4849384        3.3344395          0.0000000        0.0011858        0.0042295
             18   1       0.0000000       12.3994884       11.1138850          0.0000000       -0.0021798       -0.0035851
 Energy
         -2647.2871533388525
 PlusStress:  xx          yy          zz          yz          xz          xy
              0.0031171       -0.0000542        0.0055108       -0.0000073        0.0000000        0.0000000
END_CFG

BEGIN_CFG
 Size
    18
 SuperCell
         2.4595098289855892   0.0   0.0
         0.0   17.999998928235733   0.0
         0.0   0.0   15.77189946003974
 AtomData:  id type	  cartes_x	cartes_y      cartes_z           fx          fy          fz
             1   0       0.0000000        8.8779963       -0.1202023          0.0000000        0.0140192       -0.0139308
             2   0       1.2297600        8.3372536        0.3305335          0.0000000       -0.0137454        0.0116340
             3   0       1.2297600        7.3535578        1.3541327          0.0000000       -0.0171076        0.0061483
             4   0       0.0000000        6.9451995        1.9387585          0.0000000       -0.0122230       -0.0088544
             5   0       0.0000000        6.9458377        4.8208137          0.0000000       -0.0205521       -0.0099306
             6   0       1.2297600        7.3541422        5.4051312          0.0000000       -0.0092884        0.0018551
             7   0       1.2297600        8.3379473        6.4285668          0.0000000        0.0008631        0.0010768
             8   0       0.0000000        8.8791716        6.8796532          0.0000000       -0.0206568       -0.0124776
             9   0       0.0000000        9.9860297        7.7659070          0.0000000        0.0165929        0.0085546
             10   0       1.2297600       10.5271769        8.2168585          0.0000000        0.0038888        0.0039469
             11   0       1.2297600       11.5110211        9.2403436          0.0000000        0.0083767       -0.0051751
             12   0       0.0000000       11.9192636        9.8245998          0.0000000        0.0202138        0.0059392
             13   0       0.0000000       11.9185103       12.7065102          0.0000000        0.0171850        0.0029797
             14   0       1.2297600       11.5103043       13.2910268          0.0000000        0.0116517       -0.0014005
             15   0       1.2297600       10.5265018       14.3146244          0.0000000        0.0134489       -0.0135240
             16   0       0.0000000        9.9856360       14.7652266          0.0000000       -0.0127763        0.0146530
             17   1       0.0000000        6.5456771        3.3796116          0.0000000       -0.0172722        0.0112419
             18   1       0.0000000       12.3188132       11.2656854          0.0000000        0.0173814       -0.0027364
 Energy
         -2647.3388676214904
 PlusStress:  xx          yy          zz          yz          xz          xy
              0.0034073        0.0005564        0.0063261        0.0000055        0.0000000        0.0000000
END_CFG

BEGIN_CFG
 Size
    18
 SuperCell
         2.4595098289855892   0.0   0.0
         0.0   17.999998928235733   0.0
         0.0   0.0   15.980699546971472
 AtomData:  id type	  cartes_x	cartes_y      cartes_z           fx          fy          fz
             1   0       0.0000000        8.8803240       -0.1139552          0.0000000        0.0067995       -0.0100263
             2   0       1.2297600        8.3496796        0.3493115          0.0000000        0.0055711       -0.0127995
             3   0       1.2297600        7.3856055        1.3907094          0.0000000       -0.0187313        0.0080643
             4   0       0.0000000        6.9857038        1.9809984          0.0000000       -0.0102713       -0.0154431
             5   0       0.0000000        6.9851156        4.8675020          0.0000000       -0.0207452       -0.0024402
             6   0       1.2297600        7.3841422        5.4579217          0.0000000       -0.0029416        0.0119567
             7   0       1.2297600        8.3476163        6.5005291          0.0000000       -0.0039374        0.0035119
             8   0       0.0000000        8.8780889        6.9639725          0.0000000        0.0010112        0.0054369
             9   0       0.0000000        9.9642924        7.8765686          0.0000000       -0.0042295       -0.0067826
             10   0       1.2297600       10.4949485        8.3396551          0.0000000        0.0046771       -0.0023706
             11   0       1.2297600       11.4594275        9.3812046          0.0000000        0.0039934       -0.0115425
             12   0       0.0000000       11.8591542        9.9710722          0.0000000        0.0187169       -0.0012195
             13   0       0.0000000       11.8594899       12.8573594          0.0000000        0.0131784        0.0123068
             14   0       1.2297600       11.4601033       13.4479553          0.0000000        0.0147316       -0.0018988
             15   0       1.2297600       10.4967237       14.4902776          0.0000000        0.0013568        0.0068972
             16   0       0.0000000        9.9664020       14.9537539          0.0000000       -0.0095892        0.0132890
             17   1       0.0000000        6.5966261        3.4238722          0.0000000       -0.0238701        0.0064884
             18   1       0.0000000       12.2483266       11.4141398          0.0000000        0.0242794       -0.0034283
 Energy
         -2647.3896783501273
 PlusStress:  xx          yy          zz          yz          xz          xy
              0.0033761        0.0004774        0.0064262       -0.0000083        0.0000000        0.0000000
END_CFG

BEGIN_CFG
 Size
    18
 SuperCell
         2.4595098289855892   0.0   0.0
         0.0   17.999998928235733   0.0
         0.0   0.0   16.57769882727097
 AtomData:  id type	  cartes_x	cartes_y      cartes_z           fx          fy          fz
             1   0       0.0000000        8.9205604       -0.0626527          0.0000000       -0.0690902        0.0046015
             2   0       1.2297600        8.4498582        0.4634510          0.0000000       -0.1100748       -0.0774943
             3   0       1.2297600        7.5343983        1.5483302          0.0000000       -0.1251703       -0.0084782
             4   0       0.0000000        7.1218251        2.1368361          0.0000000       -0.0156174        0.0705634
             5   0       0.0000000        7.1220096        4.9679874          0.0000000       -0.0264075       -0.1039345
             6   0       1.2297600        7.5342598        5.5558586          0.0000000       -0.1160089        0.0256658
             7   0       1.2297600        8.4493018        6.6408294          0.0000000       -0.0711288        0.1164460
             8   0       0.0000000        8.9210412        7.1679352          0.0000000       -0.1394733       -0.0756755
             9   0       0.0000000        9.8626674        8.2256395          0.0000000        0.1241007        0.0571723
             10   0       1.2297600       10.3339616        8.7521293          0.0000000        0.1090456       -0.0722182
             11   0       1.2297600       11.2496699        9.8379783          0.0000000        0.0777116       -0.0746008
             12   0       0.0000000       11.6612256       10.4250456          0.0000000        0.0491914        0.1379063
             13   0       0.0000000       11.6622830       13.2566723          0.0000000       -0.0043580       -0.0545598
             14   0       1.2297600       11.2491957       13.8456239          0.0000000        0.1572258       -0.0287403
             15   0       1.2297600       10.3345061       14.9299293          0.0000000        0.0782106        0.1174349
             16   0       0.0000000        9.8635491       15.4567145          0.0000000        0.0836107       -0.0223359
             17   1       0.0000000        6.5981269        3.5521089          0.0000000        0.3463464        0.0099946
             18   1       0.0000000       12.1853900       11.8414824          0.0000000       -0.3481127       -0.0217474
 Energy
         -2647.429444794395
 PlusStress:  xx          yy          zz          yz          xz          xy
             -0.0001019       -0.0004958        0.0042345       -0.0000092        0.0000000        0.0000000
END_CFG

BEGIN_CFG
 Size
    18
 SuperCell
         2.4595098289855892   0.0   0.0
         0.0   17.999998928235733   0.0
         0.0   0.0   16.766599020176383
 AtomData:  id type	  cartes_x	cartes_y      cartes_z           fx          fy          fz
             1   0       0.0000000        8.8793306       -0.0973436          0.0000000       -0.0107151        0.0069880
             2   0       1.2297600        8.3889424        0.4093158          0.0000000       -0.0007973        0.0070808
             3   0       1.2297600        7.5065707        1.5221004          0.0000000        0.0112486       -0.0042308
             4   0       0.0000000        7.1448426        2.1372426          0.0000000       -0.0112805        0.0052846
             5   0       0.0000000        7.1455390        5.0468798          0.0000000       -0.0025567        0.0089379
             6   0       1.2297600        7.5074868        5.6625002          0.0000000        0.0037114       -0.0108593
             7   0       1.2297600        8.3894830        6.7756016          0.0000000       -0.0045246       -0.0097949
             8   0       0.0000000        8.8793786        7.2825363          0.0000000        0.0055808        0.0095720
             9   0       0.0000000        9.8836239        8.2859868          0.0000000       -0.0004736       -0.0043423
             10   0       1.2297600       10.3736485        8.7930732          0.0000000       -0.0023937        0.0024557
             11   0       1.2297600       11.2554728        9.9061985          0.0000000       -0.0018949        0.0129198
             12   0       0.0000000       11.6172222       10.5219231          0.0000000        0.0041222       -0.0044110
             13   0       0.0000000       11.6179100       13.4317702          0.0000000        0.0086268       -0.0005672
             14   0       1.2297600       11.2562964       14.0471575          0.0000000       -0.0077035       -0.0015933
             15   0       1.2297600       10.3743088       15.1601236          0.0000000       -0.0037872       -0.0021440
             16   0       0.0000000        9.8839381       15.6669717          0.0000000        0.0135176       -0.0103988
             17   1       0.0000000        6.7982252        3.5921274          0.0000000        0.0066080       -0.0079432
             18   1       0.0000000       11.9644005       11.9768930          0.0000000       -0.0072886        0.0030457
 Energy
         -2647.579495031818
 PlusStress:  xx          yy          zz          yz          xz          xy
              0.0029271       -0.0000560        0.0052647       -0.0000450        0.0000000        0.0000000
END_CFG

BEGIN_CFG
 Size
    18
 SuperCell
         2.4595098289855892   0.0   0.0
         0.0   17.999998928235733   0.0
         0.0   0.0   16.950499029599463
 AtomData:  id type	  cartes_x	cartes_y      cartes_z           fx          fy          fz
             1   0       0.0000000        9.0163858       -0.0005917          0.0000000        0.0273771        0.0232330
             2   0       1.2297600        8.6630805        0.5873619          0.0000000       -0.2070119        0.1699671
             3   0       1.2297600        7.8749150        1.7541815          0.0000000       -0.3662410       -0.0391201
             4   0       0.0000000        7.4567401        2.3212226          0.0000000       -0.1186883       -0.0866881
             5   0       0.0000000        7.4565626        4.9428527          0.0000000       -0.1192907        0.0852673
             6   0       1.2297600        7.8746801        5.5100110          0.0000000       -0.3635828        0.0426749
             7   0       1.2297600        8.6628885        6.6771002          0.0000000       -0.2142397       -0.1790161
             8   0       0.0000000        9.0160476        7.2649676          0.0000000        0.0378983       -0.0081350
             9   0       0.0000000        9.7258460        8.4747288          0.0000000       -0.0375039        0.0086559
             10   0       1.2297600       10.0790139        9.0626134          0.0000000        0.2131455        0.1773208
             11   0       1.2297600       10.8671907       10.2296729          0.0000000        0.3652090       -0.0405185
             12   0       0.0000000       11.2853330       10.7968535          0.0000000        0.1189621       -0.0853190
             13   0       0.0000000       11.2851469       13.4185354          0.0000000        0.1199332        0.0840036
             14   0       1.2297600       10.8670088       13.9855115          0.0000000        0.3644323        0.0419974
             15   0       1.2297600       10.0789120       15.1524241          0.0000000        0.2103756       -0.1728673
             16   0       0.0000000        9.7258121       15.7403935          0.0000000       -0.0303637       -0.0206015
             17   1       0.0000000        6.7278977        3.6318657          0.0000000       -0.0472654       -0.0027529
             18   1       0.0000000       12.0140187       12.1078804          0.0000000        0.0468542        0.0018982
 Energy
         -2647.0265748139877
 PlusStress:  xx          yy          zz          yz          xz          xy
              0.0023789        0.0051555        0.0195623       -0.0000441        0.0000000        0.0000000
END_CFG

BEGIN_CFG
 Size
    18
 SuperCell
         2.4595098289855892   0.0   0.0
         0.0   17.999998928235733   0.0
         0.0   0.0   17.129199635244067
 AtomData:  id type	  cartes_x	cartes_y      cartes_z           fx          fy          fz
             1   0       0.0000000        8.8795129       -0.0904050          0.0000000        0.0010824        0.0168063
             2   0       1.2297600        8.4116635        0.4364655          0.0000000        0.0031095        0.0073117
             3   0       1.2297600        7.5745713        1.5826518          0.0000000       -0.0172236        0.0112740
             4   0       0.0000000        7.2320132        2.2089345          0.0000000        0.0016476       -0.0034592
             5   0       0.0000000        7.2348085        5.1285820          0.0000000       -0.0001041       -0.0091369
             6   0       1.2297600        7.5772686        5.7550361          0.0000000       -0.0129776       -0.0053751
             7   0       1.2297600        8.4131398        6.9026511          0.0000000        0.0017203       -0.0126707
             8   0       0.0000000        8.8801954        7.4304957          0.0000000        0.0020967       -0.0184034
             9   0       0.0000000        9.8404305        8.4751271          0.0000000        0.0003085        0.0218212
             10   0       1.2297600       10.3075045        9.0031130          0.0000000       -0.0058500        0.0067481
             11   0       1.2297600       11.1432830       10.1506703          0.0000000        0.0160414        0.0085062
             12   0       0.0000000       11.4858411       10.7771232          0.0000000       -0.0010323        0.0085821
             13   0       0.0000000       11.4889066       13.6967072          0.0000000       -0.0054235        0.0076789
             14   0       1.2297600       11.1461383       14.3229861          0.0000000        0.0221169       -0.0148849
             15   0       1.2297600       10.3091500       15.4691353          0.0000000       -0.0042914       -0.0062092
             16   0       0.0000000        9.8413437       15.9960104          0.0000000       -0.0021536       -0.0161211
             17   1       0.0000000        6.9097706        3.6686322          0.0000000        0.0037469        0.0050435
             18   1       0.0000000       11.8109084       12.2370806          0.0000000       -0.0028143       -0.0075117
 Energy
         -2647.665603551264
 PlusStress:  xx          yy          zz          yz          xz          xy
              0.0028922        0.0000634        0.0053804       -0.0000927        0.0000000        0.0000000
END_CFG

BEGIN_CFG
 Size
    18
 SuperCell
         2.4595098289855892   0.0   0.0
         0.0   17.999998928235733   0.0
         0.0   0.0   17.63379759077841
 AtomData:  id type	  cartes_x	cartes_y      cartes_z           fx          fy          fz
             1   0       0.0000000        8.8853895       -0.0751469          0.0000000       -0.0068911       -0.0004656
             2   0       1.2297600        8.4538581        0.4822251          0.0000000       -0.0078321       -0.0052124
             3   0       1.2297600        7.6800671        1.6723455          0.0000000        0.0037667       -0.0029766
             4   0       0.0000000        7.3643278        2.3124721          0.0000000        0.0094969        0.0063005
             5   0       0.0000000        7.3674760        5.2436573          0.0000000       -0.0056950        0.0038713
             6   0       1.2297600        7.6807322        5.8851831          0.0000000       -0.0016000       -0.0040037
             7   0       1.2297600        8.4507126        7.0776103          0.0000000        0.0076799       -0.0025143
             8   0       0.0000000        8.8829850        7.6344648          0.0000000        0.0004101       -0.0107580
             9   0       0.0000000        9.7719191        8.7407720          0.0000000       -0.0024428        0.0095133
             10   0       1.2297600       10.2042625        9.2974906          0.0000000       -0.0062288        0.0044709
             11   0       1.2297600       10.9748736       10.4895337          0.0000000       -0.0000154       -0.0024960
             12   0       0.0000000       11.2885706       11.1306337          0.0000000        0.0087978       -0.0001175
             13   0       0.0000000       11.2914428       14.0612617          0.0000000       -0.0076925       -0.0036559
             14   0       1.2297600       10.9754773       14.7012681          0.0000000       -0.0033232        0.0056929
             15   0       1.2297600       10.2016105       15.8913745          0.0000000        0.0088675        0.0038515
             16   0       0.0000000        9.7701614       16.4487745          0.0000000        0.0056011        0.0015483
             17   1       0.0000000        7.0717766        3.7783480          0.0000000       -0.0001640       -0.0011233
             18   1       0.0000000       11.5853472       12.5956800          0.0000000       -0.0027349       -0.0019258
 Energy
         -2647.784175931946
 PlusStress:  xx          yy          zz          yz          xz          xy
              0.0027425       -0.0000477        0.0051848        0.0000138        0.0000000        0.0000000
END_CFG

BEGIN_CFG
 Size
    18
 SuperCell
         2.4595098289855892   0.0   0.0
         0.0   17.999998928235733   0.0
         0.0   0.0   18.089999771407804
 AtomData:  id type	  cartes_x	cartes_y      cartes_z           fx          fy          fz
             1   0       0.0000000        8.8894003       -0.0637260          0.0000000        0.0060112       -0.0060326
             2   0       1.2297600        8.4940441        0.5193725          0.0000000       -0.0011760        0.0017879